formula,mpids,is_stable,theoretical,band_gap,formation_energy_per_atom,Value,DOI,compound_type
Ag2CO3,mp-560717,False,False,0.7489999999999991,-1.06313207875,2.3,10.1016/j.cej.2019.123192,Double anions
Ag2Mo2O7,mp-27966,True,False,1.9011,-1.507470650757574,2.685,10.1039/c5ta02337h,Double anions
Ag2MoO4,mp-19318,False,False,1.873099999999999,-1.251052689761907,3.26,10.1016/j.physb.2019.02.036,Double anions
Ag2S,mp-556225,False,True,1.0853,-0.118032977604165,1.09,10.1016/j.jece.2017.11.071,Double anions
Ag2S2O7,mp-1192057,True,False,2.301599999999999,-1.405367447121212,2.24,10.1039/c3nr06565k,Double anions
Ag2SO4,mp-5625,True,False,1.2289,-1.25647538940476,3.8,10.1007/s11051-016-3726-1,Double anions
Ag2Se,mp-568971,False,True,0.9678,-0.124259673854164,0.15,10.1039/c9ee01609k,Double anions
Ag2WO4,mp-504466,False,True,2.0439,-1.348469886904761,2.925,10.1016/j.cej.2019.05.060,Double anions
Ag3AsS3,mp-561620,True,False,1.627799999999999,-0.159635012633925,2.0835,10.1016/S0925-8388(99)00422-3,Chalcogenides
Ag3BiO3,mp-505145,False,False,1.546999999999999,-0.7834499885714281,2.04,10.1134/S003602441908034X,Oxides
Ag3SbS3,mp-555269,True,False,1.5142,-0.206377109062497,2.1125,10.1016/S0925-8388(00)00795-7,Chalcogenides
Ag8GeS6,mp-9770,True,False,0.6102000000000001,-0.326871861055552,1.45,10.1039/c6ta00398b,Chalcogenides
Ag8SnS6,mp-15645,True,False,0.535099999999999,-0.204578667791666,1.315,10.1016/j.jece.2018.02.046,Chalcogenides
AgBi3S5,mp-23474,True,False,0.5262,-0.371667913784724,0.435,10.1007/s12598-020-01373-w,Chalcogenides
AgBiI4,mp-35909,False,True,1.0457,-0.6252693061111111,1.77,10.1039/c8na00416a,Halides
AgBiS2,mp-29678,False,False,0.5212,-0.289343481822921,0.98,10.1016/j.physb.2019.04.006,Double anions
AgBiSCl2,mp-556094,True,False,1.0752,-0.945403372833334,1.0,10.1039/b408306g,Double anions
AgBr,mp-23231,True,False,0.730399999999999,-0.6596210383333321,2.6,10.1016/j.cej.2013.03.091,Halides
AgCl,mp-22922,True,False,0.9522,-0.568439933749999,3.25,10.1016/j.cej.2013.10.085,Halides
AgI,mp-580941,True,False,1.3759,-0.467759898333332,2.775,10.1016/j.cej.2015.05.024,Halides
AgIO3,mp-27384,True,False,2.4375,-0.713068665333332,3.26,10.1039/c4nr02450h,Halides
AgN3,mp-2247,False,False,1.5714,0.624941838333334,3.67,10.1021/jacs.5b03986,Nitrides
AgNO3,mp-552185,True,False,1.853899999999999,-0.6806635453333341,1.8599999999999999,10.1039/c8en00570b,Oxides
AgP15,mp-1195243,False,False,1.2132,0.002923476897322,1.38,10.1021/acs.inorgchem.5b02074,Phosphides
AgPd(IO3)3,mp-1193499,False,False,1.4039,-0.736862955833334,1.5,10.1021/ic101627v,Halides
AgSbS2,mp-3922,True,False,1.3716,-0.249630471406248,1.45,10.1007/s12648-019-01607-3,Double anions
Al2O3,mp-7048,False,False,4.4553,-3.409391490000001,7.0,10.1016/j.cej.2019.04.079,Double anions
Al2Se3,mp-11674,True,False,1.8004,-1.0088235364375011,3.1,10.1039/c7tc05311h,Double anions
Al2Te3,mp-29502,True,False,1.854,-0.559024813749999,2.5,10.1021/jacs.5b03986,Double anions
Al4SiC4,mp-1214816,False,True,1.200899999999999,-0.069040207222222,1.05,10.1039/c6ra05749g,Chalcogenides
Al5BO9,mp-3281,True,False,4.9385,-3.366610787277777,6.4,10.1021/jacs.6b06680,Oxides
AlAs,mp-2172,True,False,1.503699999999999,-0.627042776249999,2.2,10.1016/j.matpr.2017.11.028,Arsenides
AlFeO3,mp-1178577,False,True,2.1792,-2.534268328,2.44,10.1016/j.jallcom.2018.03.388,Halides
AlN,mp-661,True,False,4.0467,-1.6796721718749992,6.015,10.1016/j.cej.2011.09.047,Nitrides
AlP,mp-1550,True,False,1.6294,-0.737248783988095,2.48,10.1016/j.matpr.2020.05.260,Phosphides
AlSb,mp-2624,True,False,1.2255,-0.252975485,1.62,10.1016/j.matpr.2019.05.139,Chalcogenides
As2O3,mp-1582,True,False,4.0339,-1.626348611000001,4.5,10.1021/jacs.5b03986,Double anions
As2S3,mp-1189572,True,False,1.9873,-0.155932882187498,2.3,10.1016/B978-0-12-814303-2.00005-2,Double anions
As2Se3,mp-909,True,False,1.4466,-0.139482853937499,1.76,10.1016/j.physb.2011.05.012,Double anions
AsBr3,mp-23317,True,False,3.1271,-0.860313386875,2.6,10.1021/jacs.5b03986,Halides
AsI3,mp-23218,True,False,2.2375,-0.478643139374998,2.415,10.1021/jacs.5b03986,Halides
AsSe,mp-542570,True,False,1.367999999999999,-0.119492343906248,1.2149999999999999,10.1021/jacs.5b03986,Chalcogenides
Au2S,mp-947,True,False,1.9091,-0.118021207604167,1.8,10.1039/b823539b,Double anions
B2O3,mp-1245025,False,True,4.1254,-2.7348864954666663,7.5,10.1016/j.optmat.2008.10.024,Double anions
B2S3,mp-1199451,True,False,2.5061,-0.7342185787266671,3.75,10.1039/c5tc01079a,Double anions
B4C,mp-1238815,True,True,3.0415,-0.1003448895,1.795,10.1038/s41598-019-38556-0,Carbides
B6O,mp-1346,True,False,1.856399999999999,-0.8052726050000011,2.0,10.1039/c9cs00313d,Oxides
B6P,mp-28395,True,False,2.4757,-0.326223649710885,3.3,10.1103/PhysRevB.60.2333,Phosphides
BAs,mp-10044,False,False,1.203699999999999,-0.041637114791665,1.39,10.1016/j.physb.2005.04.022,Arsenides
BAsO4,mp-3277,True,False,4.2615,-2.130445326111111,7.8,10.1039/c6ra26568e,Oxides
BC2N,mp-629458,False,True,1.661900000000001,-0.192360277291665,1.7000000000000002,10.1016/j.tsf.2010.01.014,Double anions
BN,mp-604884,True,True,4.3683,-1.412978993125001,8.0,10.1021/jacs.5b03986,Nitrides
BSb,mp-997618,False,True,0.7506,0.273972750416668,0.3185,10.1039/c8tc04641g,Chalcogenides
Ba12In4S19,mp-1229044,False,True,1.978,-1.877253377261904,2.56,10.1021/cm2019857,Double anions
Ba2BiSbO6,mp-23127,True,False,1.6958000000000002,-2.453007172999998,3.0,10.1039/c9tc06919d,Double anions
Ba2Ca(BO3)2,mp-549737,True,False,4.080500000000001,-3.224687858030303,6.0649999999999995,10.1039/c7cp02740k,Double anions
Ba2ErTaO6,mp-1205803,True,True,3.393399999999999,-3.600573126733332,2.5,10.1039/c9ra01797f,Double anions
Ba2FeBiS5,mp-1202506,False,False,0.625,-1.443725266944444,1.22,10.1021/ja1111095,Double anions
Ba2FeSbS5,mp-1199946,False,False,0.5309,-1.43033947361111,0.93,10.1021/ja1111095,Double anions
Ba2FeWO6,mp-1272506,False,True,2.506199999999999,-2.639823302,0.06,10.1016/j.physb.2015.11.019,Double anions
Ba2GaBiSe5,mp-1203584,True,False,1.7506,-1.493450638246527,2.14,10.1016/j.jssc.2012.08.039,Double anions
Ba2GaBiTe5,mp-1202829,False,False,1.065199999999999,-1.188787954537037,1.43,10.1016/j.jssc.2012.08.039,Double anions
Ba2GaSbSe5,mp-1203387,True,False,1.806699999999999,-1.477086528802083,2.51,10.1016/j.jssc.2012.08.039,Double anions
Ba2GaSbTe5,mp-1200935,False,False,0.9727999999999992,-1.1720431734259251,1.66,10.1016/j.jssc.2012.08.039,Double anions
Ba2HgS5,mp-1194545,True,False,1.6693,-1.446275455000001,2.4,10.1021/ja507890u,Double anions
Ba2In2O5,mp-20546,True,False,0.919,-2.422391895925927,2.94,10.1039/c9cp04551a,Double anions
Ba2In2S5,mp-22841,True,False,1.8678999999999992,-1.581863708287033,2.47,10.1039/c9tc06999b,Double anions
Ba2In2Se5,mp-573635,False,False,1.281,-1.515504987089119,2.295,10.1039/c9tc06999b,Double anions
Ba2InSbSe5,mp-1189339,True,False,0.768,-1.430602192042823,1.92,10.1016/j.jssc.2012.08.039,Double anions
Ba2LaV3O11,mp-1214937,False,True,3.5103,-3.015995105882353,3.35,10.1039/c5cp04115e,Double anions
Ba2LiReO6,mp-6270,True,False,1.8198,-2.741621015583333,2.42,10.1007/s00894-020-04421-5,Double anions
Ba2Mg(BO3)2,mp-9259,True,False,4.532399999999999,-3.127045616666666,5.95,10.1039/c7cp02740k,Double anions
Ba2MgSi2O7,mp-9338,True,False,4.4529,-3.363647231666667,7.44,10.1016/j.optmat.2015.02.024,Double anions
Ba2NaReO6,mp-6798,True,False,1.8688,-2.688152365387931,2.45,10.1007/s00894-020-04421-5,Double anions
Ba2NdGaS5,mp-1228486,False,True,1.8105,-1.964321324722222,2.12,10.1021/ic301649p,Double anions
Ba2ScTaO6,mp-1205823,True,True,3.0173,-3.593178310233333,4.19,10.1016/j.jssc.2007.12.007,Double anions
Ba2SiO4,mp-17612,True,False,4.6319,-3.361976853214285,4.2605,10.1016/j.optmat.2018.07.021,Double anions
Ba2SmTaO6,mp-1214622,True,True,3.3634,-3.518325293233334,3.02,10.1039/c6dt04767j,Double anions
Ba2SnSe4,mp-1192595,True,False,1.264599999999999,-1.633364205625,1.7349999999999999,10.1016/j.solidstatesciences.2015.09.013,Double anions
Ba2SnSe5,mp-31307,True,False,1.0872,-1.5117992986523432,1.8,10.1016/j.jssc.2005.04.007,Double anions
Ba2V2O7,mp-19474,True,False,3.4599,-2.922540033863693,3.22,10.1039/d0nj02316g,Double anions
Ba2VFeO6,mp-1096782,False,True,1.0389,-2.592685414,1.0,10.1038/s41598-017-06396-5,Double anions
Ba2YTaO6,mp-12385,True,False,3.463899999999999,-3.5674410347333323,3.5,10.1016/j.physb.2014.07.036,Double anions
Ba2ZnSe3,mp-1190528,False,False,1.6214,-1.834850999505208,2.6,10.1016/j.jes.2014.06.051,Double anions
Ba2ZnTe3,mp-1190380,False,False,1.2922,-1.536545329166665,2.0,10.1016/j.jes.2014.06.051,Double anions
Ba3AlAs3,mp-1192376,True,False,0.6837999999999991,-1.04244424357143,0.57,10.1016/j.jallcom.2015.10.283,Arsenides
Ba3Bi2TeO9,mp-556407,True,False,2.1188,-2.334691380444445,2.3,10.1007/s10789-005-0169-y,Double anions
Ba3GaAs3,mp-1195592,True,False,0.6858000000000001,-1.00034337125,0.78,10.1016/j.jallcom.2015.10.283,Arsenides
Ba3GeS5,mp-1200759,True,False,2.0632,-1.861464824166668,3.0,10.1016/j.jallcom.2014.07.135,Chalcogenides
Ba3InS4Cl,mp-1205371,False,False,2.8257,-2.048999094074073,3.205,10.1016/j.jallcom.2014.07.135,Halides
Ba3LaNb3O12,mp-1228150,False,True,2.6586,-3.299096265526316,4.1,10.1039/b818922f,Double anions
Ba3MgTa2O9,mp-6325,True,False,3.2733,-3.413043947644446,4.28,10.1016/j.jssc.2007.12.007,Double anions
Ba3Nb2Se9,mp-1195033,False,False,1.0023,-1.555105885256696,1.3,10.1021/cm401737s,Double anions
Ba3Sb2S7,mp-1195624,True,False,1.9021999999999992,-1.515530588958332,2.4,10.1016/j.jssc.2014.07.009,Double anions
Ba3Sc(BO3)3,mp-14972,True,False,3.4727,-3.282306826927083,6.9,10.1039/c2jm16350k,Chalcogenides
Ba3SiO5,mp-7765,False,False,3.242199999999999,-3.238230593333332,3.04,10.1039/c9cp05576b,Chalcogenides
Ba3Ta2Se9,mp-1195068,True,False,1.202,-1.576411595947172,1.6,10.1021/cm401737s,Double anions
Ba3Y4O9,mp-15751,False,False,3.3201,-3.527433782187499,5.41,10.1007/s10854-019-01199-y,Oxides
Ba4Ga4SnSe12,mp-1195344,False,False,1.3292000000000002,-1.445290525624999,2.16,10.1039/c4dt02244k,Double anions
Ba4LiGa5Se12,mp-1197353,False,False,1.7354,-1.4698236290435611,2.65,10.1021/cm400634v,Double anions
Ba5In4Te4S7,mp-1105201,False,False,1.132899999999999,-1.536140672041666,2.13,10.1039/c5dt00228a,Halides
Ba5Nb4O15,mp-3563,True,False,2.5999,-3.271554933958334,3.81,10.1016/j.jallcom.2015.05.052,Oxides
Ba5Ta4O15,mp-504554,True,False,3.0865,-3.439217441430571,4.0,10.1016/j.physb.2018.04.032,Oxides
Ba8Sn4S15,mp-1195594,True,False,2.0554,-1.731574464629628,2.31,10.7567/JJAPS.39S1.279,Chalcogenides
Ba8Ti3Nb4O24,mp-1228557,False,True,1.9693,-3.337986506923076,3.4,10.1016/j.ceramint.2012.06.067,Double anions
BaAg2GeS4,mp-7394,True,False,0.5960999999999991,-1.017325576041665,1.7,10.1016/j.jallcom.2019.152413,Double anions
BaAgSbS3,mp-1190401,True,False,1.422899999999999,-1.117579406527777,2.2,10.1021/acs.inorgchem.5b01566,Chalcogenides
BaAl2O4,mp-4202,True,False,4.1027000000000005,-3.448150932499999,5.25,10.1016/j.matpr.2019.06.573,Double anions
BaAl4S7,mp-8258,True,False,3.1571,-1.591493841874998,3.9,10.1039/c7tc05693a,Chalcogenides
BaAl4Se7,mp-1191234,False,False,2.3933,-1.370573937617186,3.4,10.1039/c2ic90019j,Chalcogenides
BaBiBO4,mp-559186,True,False,3.5528,-2.611097496309524,3.53,10.1002/crat.200711098,Oxides
BaBiO3,mp-1182285,False,True,1.1031,-1.590228198,2.05,10.1039/b821991e,Oxides
BaC2,mp-10293,False,False,2.1291,0.081697001666665,2.2,10.1016/j.intermet.2010.03.019,Double anions
BaCO3,mp-5504,True,False,4.397399999999999,-2.683242691500004,4.61,10.1007/s10854-019-00813-3,Oxides
BaCdSnS4,mp-12306,True,False,2.196399999999999,-1.280230627857144,2.3,10.1039/c6dt01537a,Chalcogenides
BaCeO3,mp-3187,True,False,2.2207,-3.589836753000001,2.585,10.1016/j.ijhydene.2018.07.007,Oxides
BaCl2,mp-567680,False,False,4.5724,-2.958708906666667,8.0,10.1039/d0qi01054e,Double anions
BaCrO4,mp-18571,True,False,2.9695,-2.461335070833333,2.63,10.1039/c5ra11682a,Oxides
BaCu2GeS4,mp-17947,True,False,0.973599999999999,-1.057595308958333,2.465,10.1039/c7ra05022d,Double anions
BaCuSF,mp-1080650,False,False,1.6223,-2.261379652499999,2.7,10.1016/j.tsf.2003.08.034,Halides
BaCuSeF,mp-9195,True,False,1.4265,-2.238796894960938,2.9,10.1016/j.tsf.2003.08.034,Halides
BaCuTeF,mp-13287,False,False,0.9884,-2.131591924791666,2.65,10.1016/j.tsf.2007.10.073,Halides
BaFe12O19,mp-554293,False,False,1.2425,-1.73529611109375,2.0,10.1039/c4nr05657d,Double anions
BaFe4O7,mp-1048391,False,True,1.7176,-1.6807526491666671,2.18,10.1039/d0tc03937c,Halides
BaGa2GeS6,mp-1227983,True,True,2.7663,-1.225007931499999,3.23,10.1039/c5dt00186b,Double anions
BaGa2GeSe6,mp-1227970,False,True,1.9186,-1.11165269040625,2.81,10.1039/c5tc02337h,Double anions
BaGa2SiS6,mp-1227993,True,True,3.0907,-1.330192778999999,3.75,10.1039/c2dt12493a,Double anions
BaGa2SiSe6,mp-1227978,False,True,2.389399999999999,-1.169778361906249,2.88,10.1039/c5tc02337h,Double anions
BaGa4S7,mp-4309,True,False,2.58,-1.258073524791666,3.54,10.1039/c7ra01142c,Chalcogenides
BaGa4Se7,mp-1191072,False,False,1.4955999999999992,-1.145983673033856,2.73,10.1016/j.optmat.2019.109564,Chalcogenides
BaHfO3,mp-998552,True,True,3.5394,-3.786714650999999,3.0,10.1016/j.physb.2010.06.051,Oxides
BaHfS3,mp-1105549,True,False,1.252399999999999,-2.139200685999998,1.69,10.1039/c5tc04172d,Chalcogenides
BaHgS2,mp-28007,True,False,1.1569,-1.404333458124999,1.93,10.1021/acs.inorgchem.5b00071,Double anions
BaLa4Ti4O15,mp-1228245,False,True,2.8881,-3.71649078763889,3.9,10.1039/c6cp07973c,Oxides
BaMnF4,mp-556850,False,False,2.3195,-3.560061476321838,1.0,10.1039/c5cp05864c,Halides
BaMoO4,mp-19276,True,False,3.7927,-2.654552259166666,3.35,10.1007/s10854-016-4627-x,Oxides
BaO,mp-1342,True,False,2.0906,-2.8236427075,3.5599999999999996,10.1016/j.optmat.2015.10.007,Oxides
BaPd(IO3)4,mp-1106270,True,False,1.905799999999999,-1.160546170555555,1.97,10.1021/ic101627v,Halides
BaPd(SeO3)2,mp-1205352,True,False,1.6510999999999991,-1.701237552968749,1.7349999999999999,10.1039/c1dt11836f,Chalcogenides
BaReH9,mp-28911,True,False,3.8349,-0.418383138522722,3.44,10.1016/S0925-8388(99)00549-6,Hydrides
BaS,mp-1500,True,False,2.1488,-2.329084296249999,3.67,10.1007/s00894-020-04370-z,Chalcogenides
BaSO4,mp-3307,False,False,4.5086,-2.574819327083332,3.2725,10.1039/d0ta02348e,Chalcogenides
BaSe,mp-1253,True,False,1.948799999999999,-2.283761781171875,1.843,10.1016/j.physb.2005.08.032,Chalcogenides
BaSi2,mp-1477,True,False,0.7812999999999991,-0.312893252083338,1.3,10.1016/j.tsf.2004.02.074,Double anions
BaSn2S5,mp-1202711,False,False,1.5453,-1.144593454374999,2.335,10.1007/s12648-014-0605-4,Double anions
BaSnF4,mp-1103397,True,False,3.6599,-3.379662983333332,2.5,10.1007/s00339-013-7767-3,Halides
BaSnO3,mp-1178513,False,True,0.665099999999999,-2.586822249000001,3.1,10.1016/j.optmat.2020.110139,Chalcogenides
BaTa2O6,mp-561103,True,False,2.1161,-3.439499560055555,3.8,10.1039/c7cc02687k,Double anions
BaTe,mp-1000,True,False,1.593,-2.003574658333334,0.27,10.1016/j.physb.2005.08.032,Chalcogenides
BaTeMo2O9,mp-1203413,False,False,3.0136,-2.150919276858974,3.035,10.1021/ic2004358,Double anions
BaThO3,mp-1189614,True,True,4.047,-3.7750959409999982,3.0,10.1016/j.optmat.2010.10.052,Oxides
BaTi4O9,mp-3175,False,False,2.7042,-3.5136086255952392,3.55,10.1007/s10562-008-9420-x,Oxides
BaTiF6,mp-8291,True,False,4.3236,-3.976591936041666,3.03,10.1016/j.jece.2017.04.038,Halides
BaTiO3,mp-5777,True,False,2.293,-3.492277977666666,3.2,10.1016/j.jece.2017.04.038,Oxides
BaWO4,mp-19048,True,False,4.8822,-2.729128477500001,3.2,10.1016/j.optmat.2019.04.026,Oxides
BaZn2(PO4)2,mp-6089,True,False,4.0373,-2.729195811098901,4.385,10.1007/s10971-016-4024-1,Double anions
BaZnO2,mp-4236,True,False,2.2724,-2.365424036666665,2.2,10.1007/s10765-016-2115-4,Double anions
BaZrO3,mp-1019544,True,False,3.1163,-3.639240691,4.8,10.1016/j.tsf.2007.09.041,Oxides
BaZrS3,mp-540771,True,False,0.99,-2.107120602499998,1.83,10.1039/c7ee02702h,Chalcogenides
Be2C,mp-1569,True,False,1.163699999999999,-0.231303785833333,2.0,10.1039/c6ra02141g,Double anions
Be3N2,mp-18337,True,False,3.3145,-1.217352798500001,3.8,10.1021/ja210846d,Double anions
BeO,mp-1244907,False,True,4.4843,-2.845416666000001,10.57,10.1007/s12648-017-0962-x,Oxides
BeS,mp-422,True,False,3.1453,-1.307251373749999,4.17,10.1016/j.physb.2011.09.127,Chalcogenides
BeSe,mp-1541,True,False,2.663699999999999,-1.029387863671874,2.7249999999999996,10.1016/j.physb.2011.09.127,Chalcogenides
BeTe,mp-252,True,False,2.017299999999999,-0.570361940833332,2.895,10.1016/j.physb.2011.09.127,Chalcogenides
Bi,mp-1182248,False,True,1.5046,1.077316884999994,-0.004,10.1021/cm990237y,Others
Bi14MoO24,mp-691119,True,True,2.6318,-1.697635304615385,2.91,10.1039/c6ce01948j,Double anions
Bi2(MoO4)3,mp-23388,True,False,2.717,-1.8971883242647087,2.77,10.1016/j.cej.2019.123351,Double anions
Bi2Mo2Se2O13,mp-1200193,True,False,2.8105,-1.6870197215625,3.15,10.1021/ja1027698,Double anions
Bi2MoO6,mp-23064,True,False,2.129299999999999,-1.857507857499999,2.66,10.1016/j.cej.2014.04.085,Double anions
Bi2O3,mp-23262,True,False,2.194499999999999,-1.641727215000003,2.8,10.1016/j.cej.2011.02.020,Double anions
Bi2Pd(SeO3)4,mp-1201497,False,False,1.7711,-1.338853224703947,1.73,10.1039/c1dt11836f,Double anions
Bi2S3,mp-22856,True,False,1.361799999999999,-0.414038356187501,1.3,10.1016/j.cej.2016.05.126,Double anions
Bi2Se2S,mp-1227504,False,True,1.17,-0.40407354268749,0.23,10.1039/c8tc04587a,Double anions
Bi2Se3,mp-23164,False,False,0.9577999999999992,-0.419367294437501,0.3,10.1016/j.cej.2019.122172,Double anions
Bi2Te2S,mp-1227335,False,True,0.7519,-0.2794673095625,0.92,10.1039/c8cp05793a,Double anions
Bi2Te2Se,mp-29666,True,False,0.544199999999999,-0.346632669812504,0.167,10.1039/c9cp06206h,Double anions
Bi2TeSe2,mp-31406,False,False,0.9267,-0.352391876625,0.62,10.1039/c9nr05725k,Double anions
Bi2WO6,mp-23480,True,False,1.913999999999999,-1.956552777222222,2.75,10.1016/j.cej.2012.05.032,Double anions
Bi6Mo2O15,mp-1204598,False,False,2.6683,-1.821042355869566,3.1,10.1016/j.rinp.2019.02.053,Double anions
BiB2O4F,mp-558753,False,False,4.1919,-2.618454928437499,4.32,10.1039/c9nj05873g,Double anions
BiF3,mp-23237,True,False,4.6808,-2.623305978125,3.94,10.1039/c6tc00447d,Halides
BiI3,mp-22849,True,False,2.5349,-0.7663869175000011,1.8,10.1016/j.physb.2011.12.011,Halides
BiIO4,mp-1191266,True,False,2.3939999999999992,-1.235655969166666,3.0700000000000003,10.1039/c3ra45891a,Halides
BiOF,mp-23074,True,False,3.1303,-2.226778585833356,3.93,10.1016/j.jphotochem.2019.01.031,Halides
BiPO4,mp-1190564,True,False,3.7758,-2.414275679107143,4.05,10.1016/j.cej.2013.05.008,Oxides
BiSI,mp-23514,False,False,1.8668999999999991,-0.694964193333333,0.4,10.1039/c5ta09612j,Halides
BiSbO4,mp-23018,True,False,2.4246,-1.841449013333336,2.85,10.1039/c1ce05025g,Chalcogenides
BiSbSe3,mp-1227508,False,True,1.0106,-0.344257173187503,1.1,10.1039/d0cp01231a,Chalcogenides
BiSeI,mp-23020,False,False,1.5764,-0.6996693257812511,1.425,10.1039/c5ta09612j,Halides
BiTeBr,mp-33723,True,True,1.2364,-0.8220315505555551,0.6,10.1039/c8cc05149f,Halides
BiTeCl,mp-28944,True,False,1.5135,-0.655658539166665,0.41500000000000004,10.1039/c5tc02344k,Halides
BiTeI,mp-22965,True,False,1.2325,-0.637094973888891,0.5449999999999999,10.1039/c9nr04519h,Halides
BrCl,mp-1066781,True,False,1.783,-0.359564575,2.94,10.1007/s11164-020-04082-2,Halides
C,mp-66,False,False,4.1145,0.1382973275,3.15,10.1016/j.jece.2020.104168,Carbides
C2F,mp-683965,False,False,2.1158,-0.665488622407407,3.94,10.1016/j.commatsci.2012.06.038,Double anions
C2N,mp-2718,False,False,3.118999999999999,0.374331726249999,1.82,10.1039/c5ra26873g,Double anions
C3N2,mp-1188347,False,True,3.745799999999999,0.265420465499998,0.165,10.1039/c7cp04934j,Double anions
C3N4,mp-971684,False,True,1.181499999999999,0.08975931392857,2.7,10.1016/j.cej.2012.08.033,Nitrides
CBr4,mp-680422,True,False,2.9265,-0.216432147375,3.7,10.1021/jacs.5b03986,Halides
CCl2,mp-1214217,False,True,3.9193,-0.3825148675,1.615,10.1039/b901512d,Double anions
CCl4,mp-1004532,True,False,4.5103,-0.642285480749999,3.78,10.1016/j.cej.2019.03.095,Halides