formula,mpids,is_stable,theoretical,band_gap,formation_energy_per_atom,Value,DOI,compound_type
CsSmCdSe3,mp-510062,True,False,2.0217,-1.5899012977810711,2.46,10.1021/ic800370r,Chalcogenides
CsSmHgSe3,mp-7212,True,False,1.3625,-1.465415702364405,2.374,10.1103/PhysRevB.65.045205,Chalcogenides
CsSmZnSe3,mp-505709,True,False,2.042399999999999,-1.644281941114404,2.5300000000000002,10.1021/ic800370r,Chalcogenides
CsSnBr3,mp-1247749,True,True,0.9682,-1.573933961431037,1.75,10.1039/c7se00100b,Halides
CsSnCl3,mp-27394,True,False,2.9154,-1.579432963000002,1.4125,10.1039/c9ra10407k,Halides
CsSnI3,mp-27381,False,False,2.0632,-1.180136671431034,1.3,10.1016/j.cej.2020.124757,Halides
CsSrBr3,mp-1213104,True,True,4.5563,-2.349344952931039,6.3,10.1039/d0tc02231d,Halides
CsSrI3,mp-1080232,True,True,3.959,-1.892797330931032,5.07,10.1039/c6cp00271d,Halides
CsTaWO6,mp-1225854,True,True,3.1466,-2.764782768554279,3.525,10.1039/c0jm02549f,Oxides
CsTbZnTe3,mp-638078,True,False,1.3573,-1.310568081053639,2.12,10.1016/j.jssc.2004.07.017,Chalcogenides
CsTe,mp-8361,True,False,1.0019,-1.069084592500001,3.94,10.1039/c6ra22758a,Chalcogenides
CsTlCl3,mp-1112176,False,True,1.2584,-1.680223661597703,2.5,10.1007/s00706-017-1933-9,Halides
CsVO3,mp-504651,True,False,3.1105,-2.4174072654310352,2.14,10.1039/c8tc05110k,Oxides
CsYCdSe3,mp-11116,True,False,2.085499999999999,-1.58216651028107,2.56,10.1103/PhysRevB.65.045205,Chalcogenides
CsYHgSe3,mp-11123,True,False,1.3946,-1.4574503873644051,2.54,10.1103/PhysRevB.65.045205,Chalcogenides
CsYZnSe3,mp-574620,True,False,2.1117,-1.646452730281069,2.35,10.1021/ic800370r,Chalcogenides
CsZn2B3O7,mp-1195000,True,False,3.5131,-2.501359942729885,5.6,10.1039/c7dt01677h,Double anions
Cu2O,mp-361,True,False,0.512699999999999,-0.6445054383333331,2.1,10.1016/j.cej.2014.06.031,Double anions
Cu2S,mp-1225993,False,True,1.2158,-0.149836503020832,1.21,10.1016/j.cej.2013.06.097,Double anions
Cu2WS4,mp-557373,False,False,1.5621,-0.535848055892856,1.74,10.1016/j.cej.2020.125913,Double anions
Cu2WSe4,mp-1025340,True,True,1.275699999999999,-0.400722725178574,1.64,10.1007/s10854-017-7970-7,Double anions
Cu3BiS3,mp-607291,False,False,0.7058,-0.275353346026784,1.42,10.1016/j.cej.2019.122172,Chalcogenides
Cu3PS4,mp-3934,True,False,1.0202,-0.362097385528272,2.3,10.1039/c6tc05510a,Chalcogenides
Cu3SbS3,mp-17691,False,False,0.9982999999999992,-0.265255546699866,1.87,10.1039/c3ce41861h,Chalcogenides
Cu4Bi4S9,mp-559551,False,False,0.972299999999999,-0.340808194430143,0.915,10.1039/c3nj00928a,Chalcogenides
Cu8SiS6,mp-13872,False,False,0.8296999999999991,-0.322123399499999,0.97,10.1039/c8nj06270f,Chalcogenides
CuBO2,mp-1096940,False,True,1.461399999999999,-1.359682192291666,3.4,10.1016/j.materresbull.2013.03.034,Double anions
CuBS2,mp-12954,True,False,1.742499999999999,-0.5917289910416661,3.61,10.1039/c6dt04767j,Double anions
CuBSe2,mp-983565,True,False,1.487,-0.186407557656249,2.315,10.1039/c0ce00818d,Double anions
CuBr,mp-22917,False,False,0.9962,-0.515792749999999,1.9835,10.1039/c4cp05840b,Halides
CuCN,mp-35308,False,True,2.5202,0.239310635833332,3.26,10.1039/c7ta09233d,Nitrides
CuCl,mp-1225654,False,True,0.5569000000000001,-0.498003276249999,3.306,10.1016/j.physb.2006.01.447,Halides
CuI,mp-570081,True,True,1.6471,-0.343417968333332,3.0,10.1016/j.physb.2019.08.021,Halides
CuN3,mp-27954,False,True,1.6279,0.293795457499999,4.5649999999999995,10.1021/jacs.5b03986,Nitrides
CuP2,mp-927,True,False,0.8679000000000001,-0.156310461150794,1.455,10.1021/jacs.5b03986,Double anions
CuPN2,mp-1078469,False,False,1.822299999999998,-0.314888697619048,1.67,10.1002/zaac.201500044,Double anions
CuSbS2,mp-4468,True,False,0.722699999999999,-0.30408631140625,1.5,10.1016/j.physb.2018.02.030,Double anions
CuWO4,mp-1103679,False,True,0.6442,-1.58007927,2.3,10.1016/j.cej.2016.08.119,Oxides
Dy2O3,mp-2345,True,False,3.925499999999999,-4.005045779666665,4.8,10.1016/j.cej.2011.02.051,Double anions
Dy2S3,mp-1270,True,False,0.593799999999999,-2.379156030187499,2.955,10.1021/jacs.5b03986,Double anions
Dy2Ti2O7,mp-752425,True,True,3.0572,-3.788647775681884,3.1,10.1007/s10854-016-5179-9,Double anions
Dy3GaS6,mp-1189242,True,False,2.061499999999999,-2.001222722687498,2.81,10.7567/JJAPS.39S1.279,Chalcogenides
Dy4GaSbS9,mp-1196712,False,False,2.0092,-1.835451649777775,2.58,10.1134/S0020168511010109,Chalcogenides
DyCrO3,mp-19381,True,False,2.4922,-3.220740385333334,2.8,10.1039/c4ra11022f,Oxides
DyMn2O5,mp-18601,True,False,1.0799,-2.652315557191061,1.61,10.1016/j.physb.2017.03.017,Double anions
DyMnO3,mp-1188804,False,True,1.0173,-2.73365396741954,3.73,10.1007/s10948-017-4550-2,Oxides
DyVO4,mp-18784,True,False,2.9764,-3.209243283611112,2.215,10.1016/j.cej.2011.02.051,Oxides
Er2O3,mp-679,True,False,3.9629,-4.057094096999998,5.3,10.1016/j.optmat.2017.04.007,Double anions
Er2Se3,mp-209,True,False,0.7923,-2.173853193270832,1.66,10.1021/jacs.5b03986,Double anions
ErBiW2O9,mp-1983109,False,True,2.543399999999999,-2.488767008461538,3.26,10.1039/c1dt10748h,Double anions
ErFeO3,mp-19935,False,False,1.5703,-2.8641381045000003,1.69,10.1007/s10971-020-05283-2,Halides
ErMnO3,mp-19319,False,False,1.0455,-3.048090045586206,1.6,10.1038/s41524-020-00426-z,Oxides
ErVO4,mp-18960,True,False,2.9661,-3.212660742500001,3.41,10.1007/s10854-017-8337-9,Oxides
Fe2O3,mp-565814,False,False,1.3902,-1.635792457249999,2.2,10.1016/j.cej.2011.01.079,Double anions
Fe3(PO4)2,mp-19346,True,False,0.8948,-2.295905708021976,0.38,10.1016/j.colsurfa.2020.124561,Halides
Fe3O4,mp-1271821,False,True,1.0229,-1.620945976785714,1.82,10.1016/j.cej.2010.09.001,Halides
FeBO3,mp-19097,True,False,1.481599999999999,-2.270362331833334,2.35,10.1007/s10008-020-04836-3,Halides
FeBiO3,mp-23501,False,False,1.279099999999999,-1.672776781,2.2,10.1039/c5ra18808c,Halides
FeCl3,mp-676241,False,True,0.6636000000000001,-1.140329346249999,0.685,10.1016/j.jece.2020.104138,Halides
FeF2,mp-556911,True,False,1.6921,-2.592156949999999,2.0,10.1039/c5cp01150g,Double anions
FeF3,mp-22398,True,False,3.1061,-2.650552071041668,4.01,10.1039/c5ta03327f,Halides
FeMoO4,mp-505526,False,False,2.037,-1.875182581666667,2.7249999999999996,10.1007/s11164-013-1057-8,Halides
FeO,mp-1274279,True,True,1.8157,-1.481519387499999,2.0,10.1016/j.cej.2020.124230,Halides
FeOF,mp-758560,False,True,1.1941,-2.111673069166666,1.23,10.1039/d0cp01767a,Halides
FeP4,mp-570553,True,False,0.8049000000000001,-0.370041921214284,0.88,10.1103/PhysRevB.60.2333,Halides
FePO4,mp-753395,True,True,1.3564,-2.351585960357142,2.445,10.1016/j.colsurfa.2020.124561,Halides
FePS3,mp-2931287,False,True,0.5063999999999991,-0.556488057928569,3.14,10.1039/c9nr04348a,Halides
FeS2,mp-1522,True,False,0.8770000000000001,-0.8468357333333321,0.95,10.1016/j.cej.2012.09.082,Double anions
FeSO4,mp-19254,True,False,2.7173,-1.857949884583333,1.03,10.1007/s10854-007-9471-6,Halides
FeSO4F,mp-1103970,False,False,2.0446,-1.985501948214285,1.5,10.1039/c5ta03744a,Halides
FeSbS,mp-27904,True,False,0.547,-0.592936158333333,0.8,10.1039/c4ee01335b,Halides
FeSi2,mp-1714,True,False,0.6966000000000001,-0.395635093333333,0.88,10.1016/j.matpr.2019.02.050,Double anions
FeWO4,mp-19421,True,False,2.401,-2.022696756666667,2.495,10.1016/j.jece.2020.104044,Halides
Ga2(TeO3)3,mp-1181313,False,True,3.7830999999999992,-1.7639596453571431,4.145,10.1021/ic1020737,Double anions
Ga2O3,mp-886,True,False,2.007799999999999,-2.268996668999999,4.8,10.1016/j.cej.2013.09.088,Double anions
Ga2S3,mp-539,True,False,1.7106,-0.7969372256875,2.99,10.1016/j.optmat.2018.09.049,Double anions
Ga2Se2O7,mp-1196063,True,False,3.4975,-1.691454147926137,4.61,10.1021/ic300373z,Double anions
Ga2Se3,mp-1340,True,False,1.043599999999999,-0.700867464437499,2.29,10.1007/s10971-009-1973-7,Double anions
Ga2Te3,mp-38970,True,True,0.6375000000000001,-0.402236419000001,1.65,10.1039/d0cp00626b,Double anions
GaN,mp-804,True,False,1.726499999999999,-0.670049406875,3.4,10.1016/j.cej.2020.126199,Nitrides
GaP,mp-2490,True,False,1.603899999999999,-0.508916133988096,2.26,10.1016/B978-0-12-814303-2.00001-5,Phosphides
GaS,mp-2507,True,False,2.0036,-0.763737817656249,2.5,10.1016/j.matpr.2020.05.070,Chalcogenides
GaSe,mp-568263,True,False,1.2121,-0.69001870828125,2.0,10.1016/j.optmat.2016.02.034,Chalcogenides
GaTe,mp-542812,True,False,1.0066,-0.442993200833332,1.685,10.1016/j.tsf.2013.10.034,Chalcogenides
GaTeCl,mp-27449,True,False,2.1702,-0.818999890833334,2.96,10.1039/c7nr08252e,Halides
Gd2(WO4)3,mp-778228,False,True,3.8025,-2.735250980882353,3.3,10.1007/s10854-017-6571-9,Double anions
Gd2O3,mp-504886,True,False,2.9411,-3.895411792000001,5.45,10.1016/j.tsf.2005.02.005,Double anions
Gd2S3,mp-669509,True,False,0.5267000000000001,-2.334266813187497,2.63,10.1039/d0nr03094e,Double anions
Gd2Ti2O7,mp-686465,False,True,2.408899999999999,-3.700774554924241,3.2,10.1039/c5ra11682a,Double anions
Gd2Zr2O7,mp-757233,False,True,2.8082000000000003,-3.84645998909091,2.68,10.1039/c6ra05113h,Double anions
Gd4GaSbS9,mp-1199284,False,False,1.518,-1.844329226999997,2.41,10.1134/S0020168511010109,Chalcogenides
GdCrO3,mp-18331,True,False,2.6309,-3.173304159499999,3.2,10.1039/c5ra11682a,Oxides
GdF3,mp-972965,True,True,2.862199999999999,-4.158415573124998,7.443,10.1039/c3cp51816g,Halides
GdScO3,mp-5690,False,False,3.1418,-3.920327644499998,5.2,10.1016/j.cej.2015.07.043,Chalcogenides
GdScS3,mp-510490,True,False,1.1773999999999991,-2.262208397687499,2.1,10.1016/j.jssc.2009.02.020,Chalcogenides
GdTaO4,mp-4875,True,False,3.3217,-3.6930033878888873,0.8,10.1016/j.optmat.2018.01.003,Oxides
GdVO4,mp-22024,True,False,2.9685,-3.1765945025,3.1,10.1016/j.cej.2012.11.074,Oxides
Ge,mp-1198022,False,False,1.1428,0.043253197058822,0.7,10.1016/j.matpr.2017.11.129,Others
Ge(SeO3)2,mp-1205339,True,False,3.727999999999999,-1.505156669409721,5.289999999999999,10.1021/ic300373z,Chalcogenides
Ge3N4,mp-672289,True,False,2.064,-0.192592425714287,2.5949999999999998,10.1039/c6ce01875k,Nitrides
GeAs,mp-9548,True,False,0.5112999999999991,-0.060294584583334,1.615,10.1039/c8ta02676a,Arsenides
GeBi4Te7,mp-29644,False,False,0.5721,-0.226525013333334,0.13,10.3938/jkps.74.256,Chalcogenides
GeC,mp-1002164,False,True,1.658099999999999,0.438373328749999,2.09,10.1016/j.rinp.2019.102306,Carbides
GeH4,mp-1078667,False,True,1.142199999999999,0.257843023,1.51,10.1016/j.cap.2013.05.005,Hydrides
GeI2,mp-27922,True,False,2.0217,-0.594992870555555,1.5,10.1021/jacs.5b03986,Double anions
GeO2,mp-470,True,False,1.2157,-2.156655663333334,5.25,10.1016/j.rinp.2019.102871,Double anions
GeS,mp-2242,True,False,1.237599999999999,-0.50070603125,1.69,10.1039/c9tc03048d,Chalcogenides
GeS2,mp-572892,True,False,2.2646,-0.662721194791666,3.71,10.1039/d0na00364f,Double anions
GeSe,mp-700,True,False,0.8988,-0.451703091171873,1.1564999999999999,10.1016/j.physb.2017.05.054,Chalcogenides
GeSe2,mp-540625,True,False,1.7063,-0.5793224153125001,2.03,10.1016/j.optmat.2019.01.043,Double anions
GeTe,mp-938,True,False,0.5565,-0.035467995000001,0.45,10.1016/j.matpr.2018.02.077,Chalcogenides
H2O,mp-684704,False,True,4.7589,-1.196362153333333,1.6,10.1016/j.ijhydene.2018.07.007,Double anions
H2O2,mp-28015,False,False,4.4853,-0.8739656187499991,1.75,10.1016/j.jece.2020.104254,Double anions
H2S,mp-696805,True,False,4.3246,-0.1704340646875,0.5037,10.1016/j.tsf.2005.11.072,Double anions
H2WO4,mp-29530,False,False,1.4761,-1.754318643928571,2.63,10.1016/j.jece.2015.02.016,Double anions
HCN,mp-510458,False,False,3.616,-0.092846543125001,0.68,10.1016/j.cej.2020.125347,Nitrides
HCNO,mp-1190216,True,True,4.6665,-0.928053018854167,3.68,10.1039/c7nj03707d,Oxides
HCO,mp-995234,False,True,4.3277,-0.8765096791071431,3.26,10.1039/c5ra24323h,Oxides
HCl,mp-634101,False,True,2.584699999999999,-0.486256185624999,2.565,10.1016/j.physb.2013.12.015,Halides
HNO3,mp-1224772,True,True,3.8657,-0.8903123615,3.75,10.1016/j.tsf.2015.10.047,Oxides
Hf3N4,mp-776470,True,True,1.2648,-1.973946385357144,0.815,10.1039/c7ce00524e,Nitrides
HfN2,mp-1102429,False,True,1.188099999999999,-1.12026927083333,1.335,10.1039/d0cp02999h,Double anions
HfO2,mp-352,True,False,4.0165,-4.019811040833332,5.68,10.1016/j.optmat.2013.05.017,Double anions
HfS2,mp-985829,True,False,1.2237,-1.806353931875001,1.93,10.1016/j.optmat.2020.109784,Double anions
HfS3,mp-9922,True,False,1.1326,-1.373083094609374,2.2,10.1039/d0ra07160a,Chalcogenides
HfSe2,mp-985831,True,False,0.5342,-1.564946299374999,1.13,10.1039/c8cp02995d,Double anions
HfZrO4,mp-754134,False,True,3.5612,-3.877764332499998,5.4,10.1016/j.tsf.2016.09.001,Oxides
Hg(IO3)2,mp-23407,True,False,2.6932,-0.8044650508333331,2.61,10.1016/j.physb.2013.10.034,Halides
HgBr2,mp-23292,True,False,2.5527,-0.8287702491666711,3.59,10.1021/jacs.5b03986,Double anions
HgBrCl,mp-1224070,False,True,2.593499999999999,-0.9145947700000032,3.4,10.1039/c3dt50291k,Halides
HgCl2,mp-22855,True,False,2.8686,-0.683485675,4.45,10.1039/c4ja00327f,Double anions
HgI2,mp-23192,True,False,1.3324,-0.564617394374998,2.15,10.1016/j.physb.2017.01.013,Double anions
HgO,mp-1224,True,False,1.1867,-0.635057482500004,2.2,10.1016/j.cej.2009.05.031,Oxides
HgS,mp-9252,False,False,1.6863,-0.371178477500002,0.7,10.1016/j.physb.2019.04.029,Chalcogenides
HgSe,mp-1018722,True,False,1.0432,-0.23692071328125,0.05,10.1039/c6tc00020g,Chalcogenides
Ho2O3,mp-812,True,False,3.9457999999999993,-4.027559444749998,2.84,10.1021/jacs.5b03986,Double anions
I,mp-23153,True,False,0.9846,0.0,1.6,10.1021/jacs.5b03986,Halides
In2Bi3Se7I,mp-1198248,False,False,1.148699999999999,-0.716893375172276,1.5,10.1016/j.jallcom.2006.10.056,Double anions
In2Ge2O7,mp-5280,False,False,1.7955,-2.060192433484849,4.43,10.1039/c0cs00126k,Double anions
In2O3,mp-22598,True,False,0.6305000000000001,-1.994067387666665,3.3,10.1016/j.cej.2011.09.054,Double anions
In2S3,mp-22216,True,False,0.8856,-0.742974841687498,2.12,10.1016/j.cej.2014.02.029,Double anions
In2Se2O7,mp-1199125,True,False,2.8578,-1.5873975830018932,2.97,10.1021/ic300373z,Double anions
In2Se3,mp-612740,True,True,0.9903,-0.686687467770832,1.3250000000000002,10.1016/j.cej.2018.10.088,Double anions
In2TeO6,mp-504908,True,False,1.016599999999999,-1.821049162222222,6.06,10.1016/0025-5408(92)90076-C,Double anions
In5S5Br,mp-510347,True,False,1.1148999999999991,-0.8211933268939371,1.55,10.1039/d0ta03841e,Halides
In7Te10,mp-669311,True,False,0.8223,-0.458874379411765,1.75,10.1016/S0040-6090(03)00240-2,Halides
InAs,mp-20412,False,True,0.5747999999999991,-0.275920370624998,0.358,10.1016/j.physb.2012.04.010,Halides
InBi2S4Br,mp-1206068,False,True,1.627,-0.790426577708333,1.5,10.1016/j.jallcom.2006.10.056,Double anions
InBi2S4Cl,mp-559521,True,False,1.5805,-0.8417136995833321,1.5,10.1016/j.jallcom.2006.10.056,Double anions
InBi2Se4Br,mp-571169,False,False,1.2945,-0.775952893880208,1.21,10.1016/j.jallcom.2006.10.056,Double anions
InGaP2,mp-1223642,False,True,0.5607000000000001,-0.394549648988094,1.84,10.1039/c4cy00974f,Double anions
InP,mp-966800,False,True,0.527999999999999,-0.354339883988092,1.35,10.1016/j.matpr.2020.04.832,Halides
InPS4,mp-20790,True,False,2.3185,-0.483963878204363,3.12,10.7567/JJAPS.39S1.279,Halides
InS,mp-19795,True,False,1.3508,-0.6828759189062491,1.9949999999999999,10.1016/j.optmat.2013.10.046,Halides
InSb2S4Br,mp-559864,True,False,1.5308000000000002,-0.734209616458331,1.8,10.1016/j.jallcom.2006.10.056,Double anions
InSb2S4Cl,mp-556541,True,False,1.552499999999998,-0.7857323302083311,1.8,10.1016/j.jallcom.2006.10.056,Double anions
InSb2Se4Br,mp-570321,False,False,1.1103,-0.7087397195052071,1.35,10.1016/j.jallcom.2006.10.056,Double anions
InSbO4,mp-1212067,True,True,0.9405999999999992,-1.951885891944443,4.05,10.1016/S0040-6090(03)00979-9,Halides
InSe,mp-22691,False,False,0.6375000000000001,-0.6763020120312461,1.39,10.1016/j.optmat.2006.09.009,Halides
InTeI,mp-29234,True,False,1.7076,-0.695439618611109,2.735,10.1039/c9nr10619g,Halides
IrS2,mp-2833,True,False,0.5371,-0.502104100624995,0.9,10.1021/jacs.5b03986,Double anions
K10Zn4Sn4S17,mp-1224229,True,True,2.1377,-1.183576601571427,3.1500000000000004,10.1021/cm030175i,Chalcogenides
K2Ag2SnSe4,mp-570887,True,False,0.8472000000000001,-0.8404800391342581,1.8,10.1107/S0108270100010106,Double anions
K2Ag3Sb3S7,mp-1223709,False,True,1.8381999999999992,-0.53850273788657,2.2,10.1021/ic9010339,Double anions
K2AgF4,mp-1104293,True,False,0.6126,-2.347875460880952,1.8,10.1039/b902161b,Double anions
K2Au(IO3)5,mp-1195201,True,False,1.9927,-1.03311708823913,2.285,10.1111/jace.13961,Double anions
K2Bi8Se13,mp-28800,True,False,0.8361000000000001,-0.791708378476904,0.53,10.1002/adma.200304994,Double anions
K2CO3,mp-3963,True,False,3.649,-2.110088034916663,4.9,10.1038/s41467-019-13712-2,Double anions
K2Cd2Te3,mp-571637,True,False,1.882299999999999,-0.904475860523808,1.93,10.1021/ja9094846,Double anions
K2Cd3S4,mp-18101,True,False,1.9018,-1.008943850694444,2.75,10.1021/ic010069n,Double anions
K2Cd3Se4,mp-1198419,True,False,1.4027999999999992,-1.031509651263887,2.4299999999999997,10.1021/ic010069n,Double anions
K2Cd3Te4,mp-18531,False,False,1.438,-0.847990985407406,2.26,10.1021/ic010069n,Double anions
K2CdO2,mp-27742,True,False,1.3562,-1.406970080899999,3.36,10.1039/c9ta13105a,Double anions
K2Ce(PO4)2,mp-1195550,True,False,1.4179,-3.014878776060439,2.46,10.1016/j.jallcom.2017.02.080,Double anions
K2CuSbS3,mp-554343,False,False,1.2062,-0.955653615642856,2.2,10.1039/c5dt03910j,Double anions
K2Gd2Sb2Se9,mp-1199482,True,False,0.922,-1.32107574920625,1.33,10.1002/zaac.200900427,Double anions
K2Ho4Cu4S9,mp-1172870,True,False,0.8687,-1.653298726684208,2.43,10.1021/ic034600l,Double anions
K2La2Sb2S9,mp-1223734,True,True,1.1627,-1.437304819466665,2.2,10.1002/zaac.200900427,Double anions
K2La2Ti3O10,mp-6548,False,False,1.733499999999999,-3.431758464970588,3.05,10.1016/j.jssc.2004.08.043,Double anions
K2MgH4,mp-23956,True,False,3.4385,-0.335866962071428,3.46,10.1039/c9tc06459a,Double anions
K2Mo4O13,mp-637680,False,False,2.992,-2.059281836289473,1.9,10.1007/s11164-013-1397-4,Double anions
K2Nd2Ti3O10,mp-1223975,False,True,2.2681,-3.379147885264707,3.25,10.1016/j.jssc.2004.08.043,Double anions
K2PdSe10,mp-505138,False,True,1.0743,-0.393897858879807,1.48,10.1103/PhysRevB.71.085116,Double anions
K2S,mp-1022,True,False,2.3201,-1.2475660384375,2.1,10.1021/jacs.5b03986,Double anions
K2Se,mp-8426,True,False,2.0925,-1.239938295614582,2.035,10.1007/s10853-016-9969-5,Double anions
K2SmP2S7,mp-555587,True,False,2.2591,-1.303826042190475,2.59,10.1021/ic101843,Double anions
K2Sn2O3,mp-8624,True,False,1.3022,-1.742462365642854,2.75,10.1038/srep20446,Double anions
K2Sn3O7,mp-1024073,True,True,1.5671,-2.08584630975,3.325,10.1021/acs.inorgchem.7b00036,Double anions
K2SnBr6,mp-574040,True,False,1.6124,-1.544271811611111,1.4049999999999998,10.1039/c9ra09232c,Double anions
K2Ta4O11,mp-1195471,True,False,3.3655,-3.200980261990259,4.15,10.1039/c6cp02868c,Double anions
K2Te,mp-1747,True,False,2.141,-1.222004715833333,1.9,10.1021/jacs.5b03986,Double anions
K2TeBr6,mp-22963,True,False,2.336,-1.39301875735185,2.17,10.1021/ja200257a,Double anions
K2TeI6,mp-27688,True,False,1.7449,-1.006003727907404,1.38,10.1021/ja200257a,Double anions
K2Ti4O9,mp-1194282,False,False,3.0211,-3.258138655522222,3.4,10.1016/j.cej.2012.07.075,Double anions
K2Ti6O13,mp-8065,True,False,2.7535,-3.347455425690477,3.45,10.1007/s11581-016-1647-8,Double anions
K2ZnTe2,mp-12535,True,False,2.0537,-1.035780234566666,3.0,10.1021/ja9094846,Double anions
K2ZrO3,mp-18449,True,False,3.6617,-2.7781002186666672,4.18,10.1007/s00289-020-03251-y,Double anions
K2ZrSi2O7,mp-559489,True,False,4.524699999999999,-3.186144017249999,4.95,10.1039/c6tc01449f,Double anions
K3Bi2I9,mp-1120792,False,True,2.5425,-1.136715078339285,2.1,10.1016/j.scriptamat.2019.03.009,Double anions
K3Cr2(PS4)3,mp-559251,False,False,1.378099999999999,-0.938507960658927,1.35,10.1002/1521-3749(200207)628:7<1511::AID-ZAAC1511>3.0.CO;2-P,Double anions
K3LuSi2O7,mp-557543,True,False,3.6132,-3.092836822570512,5.0,10.1038/s41467-019-13293-0,Double anions
K3Nb2AsSe11,mp-542545,True,False,1.1802,-1.022161677648897,1.53,10.1021/ic001157v,Double anions