formula,mpids,is_stable,theoretical,band_gap,formation_energy_per_atom,Value,DOI,compound_type
K3Sb,mp-10159,False,False,0.6773,-0.5330957603125,1.4,10.1021/jacs.5b03986,Chalcogenides
K3Ta2AsS11,mp-1211748,True,True,1.8918,-1.149100428024509,2.21,10.7567/JJAPS.39S1.279,Double anions
K3Ta2AsSe11,mp-683905,True,False,1.208699999999999,-1.024450614393995,1.45,10.1021/ic001157v,Double anions
K3Ti2P5S18,mp-1211873,True,True,1.1872999999999991,-1.017506236129675,1.61,10.1021/cm050102u,Double anions
K4GeS4,mp-556627,True,False,2.7142,-1.273485641277778,0.8,10.1002/zaac.200700440,Chalcogenides
K4GeSe4,mp-568847,True,False,1.9993,-1.213493228847221,0.64,10.1002/zaac.200700440,Chalcogenides
K4Mg(WO4)3,mp-1194610,False,False,4.6083,-2.344874842449999,4.405,10.1039/c5dt00332f,Oxides
K4Nb2S11,mp-15148,False,False,1.4656,-1.216252606852939,1.96,10.1002/1521-3749(200010)626:10<2153::AID-ZAAC2153>3.0.CO;2-X,Double anions
K4Nb6O17,mp-560692,True,False,2.6581,-2.9229413715370383,3.2,10.1016/j.cej.2013.03.091,Oxides
K4Ta2S11,mp-18664,True,False,1.7377999999999991,-1.255966230068627,2.385,10.1002/1521-3749(200010)626:10<2153::AID-ZAAC2153>3.0.CO;2-X,Double anions
K5In3P6Se19,mp-1199321,False,False,1.0646,-0.796086778595101,2.2,10.1021/ic9020096,Halides
K6Cd4Sn3Se13,mp-6296,False,False,1.4058,-1.005795382268028,2.33,10.1021/ja0474648,Chalcogenides
K6CdTe4,mp-17698,True,False,1.6614,-1.108454179560604,2.51,10.1021/ja9094846,Chalcogenides
KAg2PS4,mp-12532,True,False,1.2441,-0.721067763153272,3.02,10.1016/j.jssc.2016.04.007,Double anions
KAg2SbS3,mp-1192667,False,False,1.688299999999999,-0.537441497375994,2.1,10.1021/ic9010339,Double anions
KAg2SbS4,mp-9490,False,False,0.569599999999999,-0.471152292926221,1.63,10.7567/JJAPS.39S1.279,Double anions
KAu(IO3)4,mp-557441,True,False,2.1181,-0.916315649291666,2.52,10.1111/jace.13961,Halides
KBaAsSe3,mp-1191826,True,False,1.6299,-1.339824936963542,2.26,10.1021/cg5001446,Chalcogenides
KBaPO4,mp-6812,True,False,4.950299999999999,-3.040540147413266,4.35,10.1007/s10854-015-3745-1,Oxides
KBaSbSe3,mp-1190698,False,False,1.7736,-1.375387388213542,2.04,10.1021/cg5001446,Chalcogenides
KBi3S5,mp-1223584,False,True,1.422699999999999,-0.627175064479167,1.21,10.1021/ja981297s,Chalcogenides
KBr,mp-23251,True,False,4.3224,-2.018192221125,7.2575,10.1016/S0925-8388(99)00422-3,Halides
KCNO,mp-1223463,False,True,4.689599999999999,-1.2355729811874991,3.26,10.1039/c6ra11407e,Oxides
KCa2Nb3O10,mp-557195,False,False,2.1761,-3.153392547484374,3.44,10.1039/c7cs00290d,Double anions
KCl,mp-23289,False,False,4.8005,-2.097616928124999,6.705,10.1016/j.rinp.2020.103120,Halides
KCoO2,mp-2423265,False,True,1.3214,-1.4603007874375,1.0,10.1039/c4ra05395h,Double anions
KCu2SbS3,mp-1192531,False,False,0.9539,-0.6961365396071421,1.53,10.1016/j.jssc.2015.10.028,Double anions
KCu4AsS4,mp-557728,False,False,1.2885,-0.5704321959749991,1.9,10.1021/ic302027b,Chalcogenides
KGdTiO4,mp-1211763,False,True,2.1484,-3.364131046154763,3.04,10.1039/c3tc32472a,Oxides
KHO,mp-626785,True,True,3.678,-1.5460019428333331,5.62,10.1007/s10973-013-3183-3,Oxides
KI,mp-22898,True,False,3.8513,-1.669989291124999,6.2,10.1016/S0925-8388(99)00422-3,Halides
KIn(TeO3)2,mp-1195253,True,False,2.8719,-1.765976419724999,4.0,10.1016/j.jallcom.2014.11.039,Halides
KInSnSe4,mp-568379,True,False,1.7413,-0.9416479674345232,1.8,10.1021/ic035273k,Halides
KLa(PO3)4,mp-540962,True,False,4.8558,-2.930340037545635,4.905,10.1016/j.jallcom.2014.04.167,Oxides
KMgBO3,mp-1191101,True,False,4.6163,-2.778594942319444,3.742,10.1039/c5tc02337h,Oxides
KMgH3,mp-23737,True,False,2.458,-0.3456561272,2.59,10.1016/j.jssc.2005.12.033,Hydrides
KMnF3,mp-1205353,True,False,2.4058,-3.017527203536205,3.04,10.1039/d0ra01411g,Halides
KMnO4,mp-19046,False,False,2.081099999999999,-1.453729503780173,1.04,10.1039/c8ta09785b,Oxides
KNaTe,mp-8755,True,False,1.9491,-1.213264275416667,2.12,10.1016/j.physb.2018.05.025,Chalcogenides
KNb2PSe10,mp-1195772,False,False,0.817299999999999,-0.9064438573450252,1.15,10.1021/ic502724n,Double anions
KNb3O8,mp-27998,True,False,2.4752,-2.986958873937498,4.1,10.1039/b210055j,Oxides
KNbO3,mp-7375,True,False,2.2934,-2.852127680450001,3.24,10.1016/j.matpr.2017.07.032,Oxides
KPSe6,mp-18625,True,False,1.9067,-0.681722183556918,2.16,10.1039/d0cp03521a,Chalcogenides
KPb2Br5,mp-31508,False,False,3.0699,-1.47434131903125,3.46,10.1016/j.optmat.2016.01.025,Double anions
KPb2Cl5,mp-607267,True,False,3.6551,-1.54429492921875,4.0,10.1016/j.optmat.2020.109793,Double anions
KSb3O5,mp-31001,True,False,3.1826,-1.839133234138889,3.81,10.1007/s10973-013-3502-8,Chalcogenides
KSb5S8,mp-15559,True,False,1.591599999999999,-0.460078619017855,1.745,10.1016/j.jallcom.2003.11.108,Chalcogenides
KSbO3,mp-547792,True,False,2.6808,-2.049127173449997,4.76,10.1007/s10973-013-3502-8,Chalcogenides
KSm2CuS4,mp-11604,True,False,1.013,-1.889615164656249,2.17,10.1021/ic034600l,Double anions
KTaO3,mp-3614,True,False,2.0995,-3.071587857916669,3.65,10.1016/j.physb.2012.09.011,Oxides
KTlO,mp-27716,True,False,1.1638,-1.191447635194449,1.46,10.1039/c8nr08046a,Oxides
KY(CO3)2,mp-1211274,True,True,4.3035,-2.559192202725,5.3985,10.1016/j.jallcom.2018.02.113,Oxides
KY(TeO3)2,mp-1194980,True,False,3.1251,-2.305556996558334,3.8,10.1021/nn305707f,Chalcogenides
KZnF3,mp-5878,True,False,3.6954,-2.81380577495,4.3805,10.1016/j.physb.2011.06.063,Halides
La2GeO5,mp-638261,True,False,4.021000000000001,-3.330141265312501,4.873,10.1016/j.optmat.2018.09.024,Double anions
La2MgTiO6,mp-6457,False,False,3.064,-3.683122239833333,4.66,10.1039/c7tc02661g,Double anions
La2MnNiO6,mp-1223253,False,True,1.580499999999999,-2.823589000793103,1.133,10.1016/j.jssc.2004.03.031,Double anions
La2MoO5,mp-1105399,False,False,0.5206000000000001,-3.126056116250002,0.55,10.1021/ic501327u,Double anions
La2O3,mp-1968,True,False,3.824799999999999,-3.8759289195,5.4,10.1016/j.matpr.2017.04.097,Double anions
La2Pd2O5,mp-560340,True,False,1.179,-2.572202741111114,1.342,10.1007/s12034-020-02115-5,Double anions
La2S3,mp-7475,True,False,1.0358,-2.507728445187498,2.59,10.1039/c7ee02702h,Double anions
La2Se3,mp-32798,True,True,1.58,-2.342295032187499,1.97,10.1016/j.jlumin.2012.11.030,Double anions
La2Te3,mp-32755,True,True,1.0395,-1.857414943749999,0.1,10.1021/jacs.5b03986,Double anions
La2TeO2,mp-4547,True,False,2.028699999999999,-3.386965779333334,2.5,10.1039/c8tc05917a,Double anions
La2Ti2O7,mp-12192,True,False,2.928499999999999,-3.784009469469697,3.4,10.1016/j.cej.2011.01.035,Double anions
La2ZrS5,mp-1198687,True,False,1.0739,-2.291879551562502,2.01,10.1039/c3dt50291k,Double anions
La3CuGeSe7,mp-510011,True,False,1.1936,-1.688348896367188,2.0,10.7567/JJAPS.39S1.279,Chalcogenides
La4Cd4In2S13,mp-1196490,False,False,1.156899999999999,-1.524556674275361,2.27,10.1016/j.jssc.2015.06.033,Double anions
La4InSbS9,mp-1196663,True,False,2.2196,-1.907849651361111,2.32,10.1039/C2JM33029F,Halides
La5Ti2AgS5O7,mp-555253,True,False,1.5072,-3.061267943791667,2.05,10.1039/c6nr06541d,Double anions
La5Ti2CuS5O7,mp-559474,True,False,1.2107,-3.078372617208334,1.9,10.1039/c4cc10297e,Double anions
La8Sb2S15,mp-1195582,True,False,1.935799999999999,-2.112369190799999,2.3,10.1021/ic502362f,Double anions
LaAlO3,mp-1080060,True,True,3.7121,-3.722466562999999,5.0,10.1016/j.matpr.2017.09.103,Oxides
LaBO3,mp-8216,True,False,4.500700000000001,-3.521145549833336,1.67,10.1016/j.optmat.2019.109487,Oxides
LaBWO6,mp-1211317,False,True,3.8287,-2.909348835462962,4.1,10.1016/j.optmat.2014.03.031,Oxides
LaBr2,mp-28572,False,False,0.5885,-2.172660588333332,1.0,10.1039/d0tc01223h,Double anions
LaBr3,mp-23263,True,False,2.9266,-2.423042803749999,3.75,10.1016/j.tsf.2008.03.020,Halides
LaCoO3,mp-1288145,True,False,0.9497,-2.599926138,2.1,10.1016/j.physb.2012.11.002,Oxides
LaCrO3,mp-19281,True,False,2.3706,-3.1966233445,1.33,10.1039/c7dt01267e,Oxides
LaCuSeO,mp-552488,True,False,1.5380999999999991,-2.314142779335937,2.1479999999999997,10.1039/c8qi01402g,Chalcogenides
LaF3,mp-17171,False,True,4.9199,-4.365745196041666,10.3,10.1016/j.optmat.2015.06.020,Halides
LaFeO3,mp-1078634,True,False,1.950899999999999,-2.852925804000007,2.1,10.1016/j.cej.2012.08.012,Halides
LaGaGe2O7,mp-1212633,False,True,3.1959,-2.6129290129545453,3.3,10.1039/c5ra01714a,Double anions
LaGaO3,mp-5837,False,False,3.3483,-3.0979300295,4.08,10.1039/c6ra21693e,Oxides
LaGaS3,mp-4816,True,False,2.2366,-1.6841287401874991,2.5,10.1016/j.solidstatesciences.2007.12.010,Chalcogenides
LaMg2NiH7,mp-697905,False,False,0.9506,-0.460350513749999,0.821,10.1038/s41598-020-69113-9,Double anions
LaMnO3,mp-1180700,False,True,1.1014,-2.967020409086208,1.7,10.1016/j.jallcom.2015.09.187,Oxides
LaN,mp-567290,False,True,1.1169,-1.558962584374999,0.6,10.1016/j.jallcom.2020.153961,Nitrides
LaPO4,mp-3962,True,False,4.486000000000001,-3.538097613829366,4.96,10.1016/j.optmat.2010.12.019,Oxides
LaScO3,mp-31116,True,False,3.8973,-3.950563377999999,0.3,10.1038/ncomms1602,Chalcogenides
LaSi3N5,mp-1019967,True,False,3.099299999999999,-1.517069520416667,3.915,10.1016/j.jeurceramsoc.2013.12.054,Chalcogenides
LaTa7O19,mp-14485,True,False,3.1119,-3.433544945234568,4.14,10.1039/c3cy00557g,Oxides
LaTaN2O,mp-550514,True,False,0.671299999999999,-2.215536883466666,1.9,10.1021/ic4013763,Double anions
LaVO4,mp-19162,True,False,2.8563,-3.224557474166666,2.69,10.1016/j.cej.2018.09.098,Oxides
LaWN3,mp-989524,True,True,1.2096,-1.244283644250001,1.5405,10.1039/c5tc04172d,Nitrides
LaYS3,mp-1200447,True,False,0.7897999999999991,-2.4628581604375,1.9,10.1039/c7ee02702h,Chalcogenides
LaZnAsO,mp-549589,True,False,0.5760000000000001,-2.060511224375001,1.5,10.1016/j.tsf.2013.10.135,Oxides
Li2B4O7,mp-560463,False,False,3.7518,-2.495315280448717,5.75,10.1016/j.optmat.2017.05.032,Double anions
Li2CaGeO4,mp-7611,True,False,4.1135,-2.604269733958333,2.4,10.1016/j.optmat.2014.04.024,Double anions
Li2CdGeS4,mp-1189383,True,False,2.2131,-1.098681862083332,3.1,10.1039/c8dt04889d,Double anions
Li2CdSnS4,mp-1188784,True,False,1.9176,-1.103457180833332,3.26,10.1021/ja9040237,Double anions
Li2Fe(SO4)2,mp-1193501,False,False,4.2848,-2.10040549551282,5.0,10.1039/c6cp02175a,Double anions
Li2FeSiO4,mp-18968,True,False,3.123599999999999,-2.563266433645833,3.15,10.1039/c3ta13387g,Double anions
Li2Ga2GeS6,mp-554782,False,False,2.1339,-1.073596225606059,3.65,10.1016/j.optmat.2015.06.014,Double anions
Li2HfO3,mp-2724101,True,True,4.0573,-3.170408328611111,0.5,10.1016/j.optmat.2011.12.024,Double anions
Li2In2GeS6,mp-1191476,False,False,2.3229,-1.026634472272726,3.45,10.1021/ic300604a,Double anions
Li2In2GeSe6,mp-1191200,False,False,1.5416,-0.9442520171874992,2.3,10.1039/d0cp03521a,Double anions
Li2In2SiS6,mp-1191903,False,False,2.427999999999999,-1.131021578181817,3.61,10.1021/ic300604a,Double anions
Li2In2SiSe6,mp-1191817,False,False,1.8159,-1.00564398809659,2.54,10.1021/ic300604a,Double anions
Li2MnO3,mp-18988,True,False,1.368399999999999,-2.180112729932952,1.8900000000000001,10.1039/c5tc00616c,Double anions
Li2MnSiO4,mp-559240,True,False,2.176599999999999,-2.690084414012211,3.0,10.1039/c7ta03049e,Double anions
Li2O,mp-1960,True,False,4.8986,-2.061597913888889,3.24,10.1016/j.physb.2014.07.073,Double anions
Li2O2,mp-841,True,False,1.974299999999999,-1.650170236666666,4.5,10.1039/c3ee42446d,Double anions
Li2PtO3,mp-531826,True,True,1.842,-1.682490645,2.3,10.1007/s10800-019-01287-1,Double anions
Li2S,mp-1153,True,False,3.3862,-1.503132669722222,3.3595,10.1039/c2ee23355j,Double anions
Li2SiN2,mp-684024,True,False,4.0339,-1.106952388833335,6.9,10.1016/j.cej.2020.126086,Double anions
Li2SnS3,mp-1190364,False,False,1.419099999999999,-1.131851621527777,2.14,10.1039/c9cp05939c,Double anions
Li2SnSe3,mp-1095291,True,False,1.479699999999999,-1.06635561561632,1.95,10.1039/c9cp05939c,Double anions
Li2TiO3,mp-2931,True,False,3.0338,-2.981954403333334,3.3,10.1039/c7nj00198c,Double anions
Li2TiSiO5,mp-6332,True,False,3.215299999999999,-3.102775733333333,5.47,10.1039/d0nj00398k,Double anions
Li2W2O7,mp-27130,False,False,3.7425,-2.28143384151515,4.35,10.1007/s10973-017-6355-8,Double anions
Li2WO4,mp-19260,True,False,3.968,-2.352370269523809,4.175,10.1007/s10973-017-6355-8,Double anions
Li2ZrO3,mp-4156,True,False,3.7336,-3.040215971111112,4.74,10.1039/c3cp51101d,Double anions
Li3AlN2,mp-13944,True,False,3.162099999999999,-1.045083798333333,4.4,10.1016/j.physb.2010.02.033,Double anions
Li3AlSiO5,mp-1020023,True,False,4.9447,-2.9747119095,6.53,10.1039/c5cp06884c,Chalcogenides
Li3Bi2(PO4)3,mp-684504,False,True,4.0294,-2.512523591821428,3.5,10.1039/c7ta08968f,Double anions
Li3ClO,mp-985585,False,True,4.9291,-2.064160625,6.44,10.1039/c3ta15087a,Halides
Li3GaN2,mp-3887,True,False,2.738699999999999,-0.70524114625,4.275,10.1016/j.physb.2010.02.033,Double anions
Li3N,mp-2251,True,False,0.984,-0.4825014221875,1.115,10.1016/j.physb.2009.08.278,Nitrides
Li3NbO4,mp-31488,True,False,3.8385,-2.717096784687499,4.0,10.1016/j.tsf.2016.01.030,Oxides
Li3PS4,mp-985583,True,True,2.8091,-1.181291934642856,3.68,10.7567/JJAPS.39S1.279,Chalcogenides
Li3Sb,mp-2074,False,False,0.707399999999999,-0.744135469999999,1.0,10.1039/c7cp05027e,Chalcogenides
Li3Sc2(PO4)3,mp-6565,True,False,4.7568,-3.121208874571429,4.681,10.1039/c8cp05942j,Double anions
Li3ScN2,mp-542435,True,False,2.401399999999999,-1.049828191874998,2.9,10.1016/j.molstruc.2013.10.009,Double anions
Li3V2(PO4)3,mp-6396,True,False,1.8718999999999992,-2.727606636196428,2.725,10.1039/c8cp00354h,Double anions
Li3VO4,mp-19219,True,False,4.0337,-2.502745246250001,3.9,10.1016/j.ssi.2008.09.010,Oxides
Li4SiO4,mp-11737,True,False,4.7841000000000005,-2.674883012592592,5.53,10.1016/j.physb.2012.07.013,Chalcogenides
Li4Ti5O12,mp-685194,False,True,2.7202,-3.203121053333332,2.0,10.1039/c2ee22734g,Double anions
Li4TiO4,mp-9172,True,False,4.5573,-2.707544761296296,4.64,10.1039/c9tc00197b,Oxides
Li5FeO4,mp-19511,True,False,3.0845,-2.042025744666667,4.0,10.1039/c4cp03597f,Halides
Li5SiN3,mp-686208,True,True,2.159999999999999,-0.8706298930324081,2.51,10.1007/s10008-016-3131-9,Chalcogenides
Li6PS5Br,mp-985591,False,True,2.1394,-1.305762864010988,2.12,10.1039/c5cp01841b,Halides
Li6PS5Cl,mp-985592,False,True,2.2955,-1.320229665164834,3.1,10.1039/c9ta02166c,Halides
Li6Si2O7,mp-27767,False,False,4.995699999999999,-2.742996080333333,4.94,10.1039/c3cp51659h,Double anions
Li6Sm(BO3)3,mp-1211541,True,True,4.6432,-2.80843387986842,5.6,10.1016/j.optmat.2017.09.026,Chalcogenides
Li7La3Zr2O12,mp-942733,False,False,4.168800000000001,-3.124116936388889,5.79,10.1038/s41598-018-23852-y,Double anions
Li7Mn(BO3)3,mp-1222860,False,True,3.5681000000000003,-2.539627533063218,5.0,10.1039/c5cp02711j,Oxides
Li7P3S11,mp-641703,False,False,2.4883,-1.087633489988661,3.065,10.1039/c9cp05329h,Chalcogenides
Li7VN4,mp-4604,True,False,3.035199999999999,-0.9590333469097212,1.4,10.1016/j.jallcom.2013.04.200,Nitrides
Li8SiO6,mp-28549,True,False,4.4509,-2.435039187444444,4.745,10.1039/c3cp51659h,Chalcogenides
Li8ZrO6,mp-755225,False,True,4.7984,-2.46284939711111,4.74,10.1039/c3cp51101d,Oxides
LiAlH4,mp-27653,False,False,4.7457,-0.217149126527777,4.67,10.1039/c4ra13974g,Hydrides
LiAsS2,mp-555874,True,False,1.0664,-0.855298688958333,1.6,10.1021/ic8005629,Double anions
LiAsSe2,mp-1078724,True,False,0.7504000000000001,-0.6450723543229161,1.105,10.1002/ejic.200901052,Double anions
LiBH4,mp-1190655,False,True,0.9397,0.340354510416666,6.9595,10.1016/j.rinp.2017.08.053,Hydrides
LiBr,mp-976280,True,True,4.9348,-1.835894534166666,7.725,10.1021/jacs.5b03986,Halides
LiCa3As2H,mp-1192528,True,False,1.441699999999999,-1.041394735654762,1.4,10.1039/c4dt02244k,Double anions
LiCaAs,mp-1095289,True,False,1.073299999999999,-1.236092714722222,1.57,10.1006/jssc.1998.7791,Arsenides
LiCaBi,mp-569501,True,False,0.5790000000000001,-0.95024824222222,0.6,10.1006/jssc.1998.7791,Others
LiCaSb,mp-16264,True,False,0.6443000000000001,-1.006045865277776,0.89,10.1006/jssc.1998.7791,Chalcogenides
LiCdBO3,mp-6126,True,False,2.115599999999999,-2.30400035625,4.28,10.1016/j.jssc.2015.12.004,Oxides
LiCoO2,mp-22526,True,False,0.6623,-1.745659770833334,2.7,10.1039/c4ta00673a,Double anions
LiCoPO4,mp-758022,True,True,3.2415,-2.404089948282313,3.4,10.1039/c1ee02283k,Oxides
LiCuS,mp-1407369,False,True,1.5952000000000002,-0.9042642902777772,2.0,10.1016/j.tsf.2010.10.045,Chalcogenides
LiFe5O8,mp-21735,False,False,1.3685,-1.7119847100595251,1.7650000000000001,10.1039/c6nj01790h,Halides
LiFeBO3,mp-777049,True,True,3.1615,-2.332140617916666,3.4,10.1007/s10008-020-04836-3,Halides
LiFePO4,mp-19017,True,False,3.922399999999999,-2.479896014710884,3.75,10.1016/j.physb.2009.05.035,Halides
LiFeSO4F,mp-943492,False,False,1.3691,-2.187234293229166,2.83,10.1039/c0cp00517g,Halides
LiFeSiO4,mp-758562,False,True,2.9822,-2.536767287619047,2.9,10.1039/d0cp02578j,Halides
LiGaO2,mp-5854,True,False,3.1981,-2.378874777083333,5.8,10.1016/j.optmat.2019.05.014,Double anions
LiGaS2,mp-3647,True,False,2.9608,-1.276394505208333,3.635,10.1016/j.optmat.2014.12.046,Double anions
LiGaSe2,mp-11582,True,False,2.0656,-1.063571209322917,3.34,10.1016/j.optmat.2017.01.049,Double anions
LiGaTe2,mp-5048,True,False,1.5885,-0.839710808541665,2.31,10.1039/c8ra01079j,Double anions
LiGeBO4,mp-8873,False,False,4.526400000000001,-2.494826821071428,6.2,10.1039/c8qi01377b,Oxides
LiH,mp-23703,True,False,2.981,-0.489362137708333,2.76,10.1016/j.physb.2004.12.036,Hydrides
LiI,mp-570935,True,False,4.3818,-1.422324364166667,6.0,10.1021/jacs.5b03986,Halides
LiIO3,mp-23384,True,False,3.7886,-1.385911869166666,4.1850000000000005,10.1016/S0925-8388(99)00422-3,Halides
LiIn(IO3)4,mp-973966,True,False,3.0613,-1.147699379444444,4.27,10.1039/c0dt01272f,Halides
LiInP2O7,mp-8491,True,False,3.9726,-2.6025876490259723,4.6,10.1016/j.optmat.2007.02.009,Double anions
LiInS2,mp-1188392,True,False,2.187499999999999,-1.182090984374999,3.57,10.1016/0038-1098(94)90360-3,Double anions
LiInSe2,mp-20187,True,False,1.5731000000000002,-1.056964433697915,2.83,10.1007/s00894-014-2528-6,Double anions
LiInTe2,mp-20782,True,False,1.3847,-0.8370955545833321,1.23,10.1039/c9ta10466f,Double anions
LiMgAs,mp-12558,True,False,1.372299999999999,-0.8998631680555551,1.25,10.1007/s12648-015-0791-8,Arsenides
LiMgN,mp-37906,True,True,2.4462,-0.8117910368055551,3.45,10.1016/S0022-0248(01)02249-7,Nitrides
LiMgP,mp-36111,True,True,1.7113,-0.75129741765873,2.43,10.1016/S0038-1098(98)00384-6,Phosphides
LiMgSb,mp-1207082,True,True,1.4438,-0.616211496111109,1.875,10.1016/j.physb.2017.05.041,Chalcogenides
LiMn2O4,mp-1176656,False,True,1.052299999999999,-2.022560622027914,1.43,10.1016/j.tsf.2005.11.083,Double anions
LiMnBO3,mp-19131,False,False,2.563599999999999,-2.514293998405173,3.05,10.1007/s11581-017-2019-8,Oxides
LiMnPO4,mp-18997,True,False,3.411499999999999,-2.633428733343891,2.0,10.1039/c2ta01393b,Oxides
LiN3,mp-2659,True,False,3.6364,-0.205821525729167,3.4,10.1007/s12039-012-0338-x,Nitrides
LiNb3O8,mp-3368,True,False,3.017,-2.980640704027777,3.9,10.1039/c3ra45520c,Oxides
LiNbO2,mp-3924,True,False,1.579499999999999,-2.686382930833336,3.16,10.1038/srep20446,Double anions
LiNbO3,mp-3731,True,False,3.3358,-2.899517651666666,3.875,10.1016/j.optmat.2008.01.018,Oxides
LiSi,mp-570363,False,False,1.3839,0.043562903958333,0.755,10.1016/j.intermet.2009.08.012,Chalcogenides
LiTaO3,mp-3666,True,False,3.7003,-3.125358770133336,4.4,10.1016/j.cej.2019.06.015,Oxides
LiTeO3,mp-755231,False,True,2.1534,-1.7506827875000002,2.0,10.1038/s41467-018-05137-0,Chalcogenides
LiV2(PO4)3,mp-1101601,True,True,1.3092,-2.6549863170701062,0.1,10.1039/c8ee01883a,Double anions
LiVMoO6,mp-1222368,False,True,2.7403,-2.178402661481482,2.505,10.1016/j.cej.2013.08.091,Oxides
LiVO3,mp-19373,True,False,3.0342,-2.427956693666677,0.4,10.1038/srep34085,Oxides
LiVPO4F,mp-25423,True,False,1.6248,-2.838054900997024,1.75,10.1007/s10008-020-04582-6,Halides
LiYO2,mp-7020,True,False,4.3897,-3.247456247708332,5.23,10.1016/j.physb.2017.06.055,Double anions
LiZnAs,mp-9124,True,False,0.5518000000000001,-0.518190976944444,1.61,10.1016/j.physb.2017.05.041,Arsenides