mpids,formula,is_stable,theoretical,band_gap,formation_energy_per_atom,Value,Temperature_raw_value,DOI,compound_type
mp-390,TiO2,True,False,2.0586,-3.508055451944444,[2.9],,10.1039/c8ra02869a,Double anions
mp-390,TiO2,True,False,2.0586,-3.508055451944444,[0.2],,10.1039/c8ra04148b,Double anions
mp-390,TiO2,True,False,2.0586,-3.508055451944444,[3.2],,10.1039/c8ra04599b,Double anions
mp-390,TiO2,True,False,2.0586,-3.508055451944444,[3.19],,10.1039/c8ra04956d,Double anions
mp-390,TiO2,True,False,2.0586,-3.508055451944444,[2.86],,10.1039/c8ra06517a,Double anions
mp-390,TiO2,True,False,2.0586,-3.508055451944444,[3.2],,10.1039/c8ra06778c,Double anions
mp-390,TiO2,True,False,2.0586,-3.508055451944444,[3.2],,10.1039/c8ra06896h,Double anions
mp-390,TiO2,True,False,2.0586,-3.508055451944444,[3.2],,10.1039/c8ra07360k,Double anions
mp-390,TiO2,True,False,2.0586,-3.508055451944444,[3.2],,10.1039/c8ra08834a,Double anions
mp-390,TiO2,True,False,2.0586,-3.508055451944444,[3.2],,10.1039/c8ra10026h,Double anions
mp-390,TiO2,True,False,2.0586,-3.508055451944444,[3.2],,10.1039/c8ra10238d,Double anions
mp-390,TiO2,True,False,2.0586,-3.508055451944444,[3.2],,10.1039/c8se00332g,Double anions
mp-390,TiO2,True,False,2.0586,-3.508055451944444,[3.2],,10.1039/c8se00372f,Double anions
mp-390,TiO2,True,False,2.0586,-3.508055451944444,[3.16],,10.1039/c8se00548f,Double anions
mp-390,TiO2,True,False,2.0586,-3.508055451944444,[3.2],,10.1039/c8ta00671g,Double anions
mp-390,TiO2,True,False,2.0586,-3.508055451944444,[2.62],,10.1039/c8ta02012d,Double anions
mp-390,TiO2,True,False,2.0586,-3.508055451944444,[3.42],,10.1039/c8ta02179a,Double anions
mp-390,TiO2,True,False,2.0586,-3.508055451944444,[3.0],,10.1039/c8ta05092a,Double anions
mp-390,TiO2,True,False,2.0586,-3.508055451944444,[2.88],,10.1039/c8ta05092a,Double anions
mp-390,TiO2,True,False,2.0586,-3.508055451944444,[3.2],,10.1039/c8ta09865d,Double anions
mp-390,TiO2,True,False,2.0586,-3.508055451944444,[2.96],,10.1039/c8ta10045d,Double anions
mp-390,TiO2,True,False,2.0586,-3.508055451944444,[3.0],,10.1039/c8ta10045d,Double anions
mp-390,TiO2,True,False,2.0586,-3.508055451944444,[3.171],,10.1039/c8ta10045d,Double anions
mp-390,TiO2,True,False,2.0586,-3.508055451944444,[2.87],,10.1039/c8ta10045d,Double anions
mp-390,TiO2,True,False,2.0586,-3.508055451944444,[1.7],,10.1039/c8ta10633a,Double anions
mp-390,TiO2,True,False,2.0586,-3.508055451944444,[3.2],,10.1039/c8ta10633a,Double anions
mp-390,TiO2,True,False,2.0586,-3.508055451944444,[3.1],,10.1039/c8ta10633a,Double anions
mp-390,TiO2,True,False,2.0586,-3.508055451944444,[3.2],,10.1039/c8ta12304g,Double anions
mp-390,TiO2,True,False,2.0586,-3.508055451944444,[3.2],,10.1039/c8tc06476h,Double anions
mp-390,TiO2,True,False,2.0586,-3.508055451944444,[3.2],,10.1039/c9cc00843h,Double anions
mp-390,TiO2,True,False,2.0586,-3.508055451944444,[3.2],,10.1039/c9cc02574j,Double anions
mp-390,TiO2,True,False,2.0586,-3.508055451944444,[3.2],,10.1039/c9cc02891a,Double anions
mp-390,TiO2,True,False,2.0586,-3.508055451944444,[3.2],,10.1039/c9cc04193a,Double anions
mp-390,TiO2,True,False,2.0586,-3.508055451944444,[3.2],,10.1039/c9cc07005b,Double anions
mp-390,TiO2,True,False,2.0586,-3.508055451944444,[3.2],,10.1039/c9ce01170f,Double anions
mp-390,TiO2,True,False,2.0586,-3.508055451944444,[3.2],,10.1039/c9cp00894b,Double anions
mp-390,TiO2,True,False,2.0586,-3.508055451944444,[3.1],,10.1039/c9cp06784a,Double anions
mp-390,TiO2,True,False,2.0586,-3.508055451944444,[3.0],,10.1039/c9cs00090a,Double anions
mp-390,TiO2,True,False,2.0586,-3.508055451944444,[3.2],,10.1039/c9cs00377k,Double anions
mp-390,TiO2,True,False,2.0586,-3.508055451944444,[3.0],,10.1039/c9cs00713j,Double anions
mp-390,TiO2,True,False,2.0586,-3.508055451944444,[3.2],,10.1039/c9cy00745h,Double anions
mp-390,TiO2,True,False,2.0586,-3.508055451944444,[3.31],,10.1039/c9cy00745h,Double anions
mp-390,TiO2,True,False,2.0586,-3.508055451944444,[3.2],,10.1039/c9cy01020c,Double anions
mp-390,TiO2,True,False,2.0586,-3.508055451944444,[3.2],,10.1039/c9cy01086f,Double anions
mp-390,TiO2,True,False,2.0586,-3.508055451944444,[1.54],,10.1039/c9cy01183h,Double anions
mp-390,TiO2,True,False,2.0586,-3.508055451944444,[3.2],,10.1039/c9cy01183h,Double anions
mp-390,TiO2,True,False,2.0586,-3.508055451944444,[2.97],,10.1039/c9cy01209e,Double anions
mp-390,TiO2,True,False,2.0586,-3.508055451944444,[3.2],,10.1039/c9cy01388a,Double anions
mp-390,TiO2,True,False,2.0586,-3.508055451944444,[3.1],,10.1039/c9cy01687b,Double anions
mp-390,TiO2,True,False,2.0586,-3.508055451944444,[3.2],,10.1039/c9cy02098e,Double anions
mp-390,TiO2,True,False,2.0586,-3.508055451944444,[3.2],,10.1039/c9dt01807g,Double anions
mp-390,TiO2,True,False,2.0586,-3.508055451944444,[3.39],,10.1039/c9dt03798e,Double anions
mp-390,TiO2,True,False,2.0586,-3.508055451944444,[3.15],,10.1039/c9dt04726c,Double anions
mp-390,TiO2,True,False,2.0586,-3.508055451944444,[3.2],,10.1039/c9ee00717b,Double anions
mp-390,TiO2,True,False,2.0586,-3.508055451944444,[3.2],,10.1039/c9gc01728c,Double anions
mp-390,TiO2,True,False,2.0586,-3.508055451944444,[3.21],,10.1039/c9na00478e,Double anions
mp-390,TiO2,True,False,2.0586,-3.508055451944444,[3.38],,10.1039/c9na00478e,Double anions
mp-390,TiO2,True,False,2.0586,-3.508055451944444,[2.83],,10.1039/c9na00478e,Double anions
mp-390,TiO2,True,False,2.0586,-3.508055451944444,[3.2],,10.1039/c9nj00170k,Double anions
mp-390,TiO2,True,False,2.0586,-3.508055451944444,[3.0],,10.1039/c9nj01488h,Double anions
mp-390,TiO2,True,False,2.0586,-3.508055451944444,[3.2],,10.1039/c9nj02834j,Double anions
mp-390,TiO2,True,False,2.0586,-3.508055451944444,[3.2],,10.1039/c9nj03908b,Double anions
mp-390,TiO2,True,False,2.0586,-3.508055451944444,[2.93],,10.1039/c9nj03908b,Double anions
mp-390,TiO2,True,False,2.0586,-3.508055451944444,[3.2],,10.1039/c9nj05763c,Double anions
mp-390,TiO2,True,False,2.0586,-3.508055451944444,[3.2],,10.1039/c9nj06429j,Double anions
mp-390,TiO2,True,False,2.0586,-3.508055451944444,[3.0],,10.1039/c9nr04015c,Double anions
mp-390,TiO2,True,False,2.0586,-3.508055451944444,[3.25],,10.1039/c9nr06760d,Double anions
mp-390,TiO2,True,False,2.0586,-3.508055451944444,[3.17],,10.1039/c9nr09534a,Double anions
mp-390,TiO2,True,False,2.0586,-3.508055451944444,[3.2],,10.1039/c9nr09891g,Double anions
mp-390,TiO2,True,False,2.0586,-3.508055451944444,[3.2],,10.1039/c9nr10908k,Double anions
mp-390,TiO2,True,False,2.0586,-3.508055451944444,[3.2],,10.1039/c9ob01739a,Double anions
mp-390,TiO2,True,False,2.0586,-3.508055451944444,[3.0],,10.1039/c9pp00163h,Double anions
mp-390,TiO2,True,False,2.0586,-3.508055451944444,[2.75],,10.1039/c9pp00304e,Double anions
mp-390,TiO2,True,False,2.0586,-3.508055451944444,[3.11],,10.1039/c9qi00511k,Double anions
mp-390,TiO2,True,False,2.0586,-3.508055451944444,[3.0],,10.1039/c9qi00511k,Double anions
mp-390,TiO2,True,False,2.0586,-3.508055451944444,[3.6],,10.1039/c9qm00727j,Double anions
mp-390,TiO2,True,False,2.0586,-3.508055451944444,[3.2],,10.1039/c9ra00475k,Double anions
mp-390,TiO2,True,False,2.0586,-3.508055451944444,[3.1],,10.1039/c9ra00564a,Double anions
mp-390,TiO2,True,False,2.0586,-3.508055451944444,[3.04],,10.1039/c9ra02307k,Double anions
mp-390,TiO2,True,False,2.0586,-3.508055451944444,[3.2],,10.1039/c9ra02634g,Double anions
mp-390,TiO2,True,False,2.0586,-3.508055451944444,[1.4],,10.1039/c9ra03531a,Double anions
mp-390,TiO2,True,False,2.0586,-3.508055451944444,[2.9],,10.1039/c9ra03531a,Double anions
mp-390,TiO2,True,False,2.0586,-3.508055451944444,[3.03],,10.1039/c9ra03755a,Double anions
mp-390,TiO2,True,False,2.0586,-3.508055451944444,[3.2],,10.1039/c9ra03940f,Double anions
mp-390,TiO2,True,False,2.0586,-3.508055451944444,[3.24],,10.1039/c9ra03940f,Double anions
mp-390,TiO2,True,False,2.0586,-3.508055451944444,[2.75],,10.1039/c9ra05113a,Double anions
mp-390,TiO2,True,False,2.0586,-3.508055451944444,[3.2],,10.1039/c9ra05155d,Double anions
mp-390,TiO2,True,False,2.0586,-3.508055451944444,[3.13],,10.1039/c9ra05155d,Double anions
mp-390,TiO2,True,False,2.0586,-3.508055451944444,[3.35],,10.1039/c9ra05155d,Double anions
mp-390,TiO2,True,False,2.0586,-3.508055451944444,[3.2],,10.1039/c9ra06045f,Double anions
mp-390,TiO2,True,False,2.0586,-3.508055451944444,[2.51],,10.1039/c9ra06045f,Double anions
mp-390,TiO2,True,False,2.0586,-3.508055451944444,[3.0],,10.1039/c9ra07767g,Double anions
mp-390,TiO2,True,False,2.0586,-3.508055451944444,[2.03],,10.1039/c9ra10305h,Double anions
mp-390,TiO2,True,False,2.0586,-3.508055451944444,[1.59],,10.1039/c9ra10305h,Double anions
mp-390,TiO2,True,False,2.0586,-3.508055451944444,[3.2],,10.1039/c9se00235a,Double anions
mp-390,TiO2,True,False,2.0586,-3.508055451944444,[3.2],,10.1039/c9se00633h,Double anions
mp-390,TiO2,True,False,2.0586,-3.508055451944444,[3.26],,10.1039/c9ta00994a,Double anions
mp-390,TiO2,True,False,2.0586,-3.508055451944444,[3.15],,10.1039/c9ta01863h,Double anions
mp-390,TiO2,True,False,2.0586,-3.508055451944444,[3.2],,10.1039/c9ta03026c,Double anions
mp-390,TiO2,True,False,2.0586,-3.508055451944444,[3.0],,10.1039/c9ta03385h,Double anions
mp-390,TiO2,True,False,2.0586,-3.508055451944444,[1.0],,10.1039/c9ta03385h,Double anions
mp-390,TiO2,True,False,2.0586,-3.508055451944444,[3.2],,10.1039/c9ta03385h,Double anions
mp-390,TiO2,True,False,2.0586,-3.508055451944444,[3.2],,10.1039/c9ta04482e,Double anions
mp-390,TiO2,True,False,2.0586,-3.508055451944444,[3.2],,10.1039/c9ta09400h,Double anions
mp-390,TiO2,True,False,2.0586,-3.508055451944444,[3.2],,10.1039/c9tc00555b,Double anions
mp-390,TiO2,True,False,2.0586,-3.508055451944444,[0.3],,10.1039/c9tc04740a,Double anions
mp-390,TiO2,True,False,2.0586,-3.508055451944444,[3.2],,10.1039/c9tc05953a,Double anions
mp-390,TiO2,True,False,2.0586,-3.508055451944444,[3.03],,10.1039/d0ce01036g,Double anions
mp-390,TiO2,True,False,2.0586,-3.508055451944444,[3.2],,10.1039/d0cp00929f,Double anions
mp-390,TiO2,True,False,2.0586,-3.508055451944444,[3.16],,10.1039/d0cp00929f,Double anions
mp-390,TiO2,True,False,2.0586,-3.508055451944444,[0.12],,10.1039/d0cp00929f,Double anions
mp-390,TiO2,True,False,2.0586,-3.508055451944444,[2.2],,10.1039/d0cp01953d,Double anions
mp-390,TiO2,True,False,2.0586,-3.508055451944444,[2.13],,10.1039/d0cy00419g,Double anions
mp-390,TiO2,True,False,2.0586,-3.508055451944444,[3.2],,10.1039/d0cy01167c,Double anions
mp-390,TiO2,True,False,2.0586,-3.508055451944444,[2.097],,10.1039/d0dt00317d,Double anions
mp-390,TiO2,True,False,2.0586,-3.508055451944444,[3.2],,10.1039/d0dt01643h,Double anions
mp-390,TiO2,True,False,2.0586,-3.508055451944444,[3.0],,10.1039/d0dt03056b,Double anions
mp-390,TiO2,True,False,2.0586,-3.508055451944444,[3.2],,10.1039/d0en00627k,Double anions
mp-390,TiO2,True,False,2.0586,-3.508055451944444,[3.2],,10.1039/d0ew00276c,Double anions
mp-390,TiO2,True,False,2.0586,-3.508055451944444,[2.1],,10.1039/d0ma00047g,Double anions
mp-390,TiO2,True,False,2.0586,-3.508055451944444,[3.28],,10.1039/d0ma00171f,Double anions
mp-390,TiO2,True,False,2.0586,-3.508055451944444,[3.1],,10.1039/d0ma00479k,Double anions
mp-390,TiO2,True,False,2.0586,-3.508055451944444,[1.6],,10.1039/d0na00160k,Double anions
mp-390,TiO2,True,False,2.0586,-3.508055451944444,[2.92],,10.1039/d0na00160k,Double anions
mp-390,TiO2,True,False,2.0586,-3.508055451944444,[3.2],,10.1039/d0na00183j,Double anions
mp-390,TiO2,True,False,2.0586,-3.508055451944444,[3.3],,10.1039/d0na00195c,Double anions
mp-390,TiO2,True,False,2.0586,-3.508055451944444,[3.0],,10.1039/d0na00195c,Double anions
mp-390,TiO2,True,False,2.0586,-3.508055451944444,[3.5],,10.1039/d0na00569j,Double anions
mp-390,TiO2,True,False,2.0586,-3.508055451944444,[3.13],,10.1039/d0nj01017k,Double anions
mp-390,TiO2,True,False,2.0586,-3.508055451944444,[0.06],,10.1039/d0nj01017k,Double anions
mp-390,TiO2,True,False,2.0586,-3.508055451944444,[3.2],,10.1039/d0nj01540g,Double anions
mp-390,TiO2,True,False,2.0586,-3.508055451944444,[2.53],,10.1039/d0nj01540g,Double anions
mp-390,TiO2,True,False,2.0586,-3.508055451944444,[2.15],,10.1039/d0nj02153a,Double anions
mp-390,TiO2,True,False,2.0586,-3.508055451944444,[3.73],,10.1039/d0nj02346a,Double anions
mp-390,TiO2,True,False,2.0586,-3.508055451944444,[3.1],,10.1039/d0nj04397d,Double anions
mp-390,TiO2,True,False,2.0586,-3.508055451944444,[3.37],,10.1039/d0nr02958k,Double anions
mp-390,TiO2,True,False,2.0586,-3.508055451944444,[3.2],,10.1039/d0nr07010f,Double anions
mp-390,TiO2,True,False,2.0586,-3.508055451944444,[3.08],,10.1039/d0ra00075b,Double anions
mp-390,TiO2,True,False,2.0586,-3.508055451944444,[3.2],,10.1039/d0ra01996h,Double anions
mp-390,TiO2,True,False,2.0586,-3.508055451944444,[2.98],,10.1039/d0ra01996h,Double anions
mp-390,TiO2,True,False,2.0586,-3.508055451944444,[3.0],,10.1039/d0ra02709j,Double anions
mp-390,TiO2,True,False,2.0586,-3.508055451944444,[1.81],,10.1039/d0ra02709j,Double anions
mp-390,TiO2,True,False,2.0586,-3.508055451944444,[3.3],,10.1039/d0ra03151h,Double anions
mp-390,TiO2,True,False,2.0586,-3.508055451944444,[1.52],,10.1039/d0ra03421e,Double anions
mp-390,TiO2,True,False,2.0586,-3.508055451944444,[2.34],,10.1039/d0ra03698f,Double anions
mp-390,TiO2,True,False,2.0586,-3.508055451944444,[3.2],,10.1039/d0ra05862a,Double anions
mp-390,TiO2,True,False,2.0586,-3.508055451944444,[3.18],,10.1039/d0ra06550a,Double anions
mp-390,TiO2,True,False,2.0586,-3.508055451944444,[3.2],,10.1039/d0ra07588d,Double anions
mp-390,TiO2,True,False,2.0586,-3.508055451944444,[2.97],,10.1039/d0ra08421b,Double anions
mp-390,TiO2,True,False,2.0586,-3.508055451944444,[0.26],,10.1039/d0sc00594k,Double anions
mp-390,TiO2,True,False,2.0586,-3.508055451944444,[3.2],,10.1039/d0ta00029a,Double anions
mp-390,TiO2,True,False,2.0586,-3.508055451944444,[3.2],,10.1039/d0ta01071e,Double anions
mp-390,TiO2,True,False,2.0586,-3.508055451944444,[3.2],,10.1039/d0ta02755c,Double anions
mp-390,TiO2,True,False,2.0586,-3.508055451944444,[3.2],,10.1039/d0ta04541a,Double anions
mp-390,TiO2,True,False,2.0586,-3.508055451944444,[3.62],,10.1039/d0ta06442d,Double anions
mp-390,TiO2,True,False,2.0586,-3.508055451944444,[3.03],,10.1039/d0ta06636b,Double anions
mp-390,TiO2,True,False,2.0586,-3.508055451944444,[3.0],,10.1039/d0tc01956a,Double anions
mp-390,TiO2,True,False,2.0586,-3.508055451944444,[3.2],,10.1039/b104223h,Double anions
mp-390,TiO2,True,False,2.0586,-3.508055451944444,[3.23],,10.1039/b303716a,Double anions
mp-390,TiO2,True,False,2.0586,-3.508055451944444,[3.1],,10.1039/b307879e,Double anions
mp-390,TiO2,True,False,2.0586,-3.508055451944444,[3.2],,10.1039/b500369e,Double anions
mp-390,TiO2,True,False,2.0586,-3.508055451944444,[3.2],,10.1039/b511296f,Double anions
mp-390,TiO2,True,False,2.0586,-3.508055451944444,[3.2],,10.1039/b515513d,Double anions
mp-390,TiO2,True,False,2.0586,-3.508055451944444,[3.2],,10.1039/b517653k,Double anions
mp-390,TiO2,True,False,2.0586,-3.508055451944444,[3.2],,10.1039/b603456j,Double anions
mp-390,TiO2,True,False,2.0586,-3.508055451944444,[3.0],,10.1039/b608177k,Double anions
mp-390,TiO2,True,False,2.0586,-3.508055451944444,[3.2],,10.1039/b711748p,Double anions
mp-390,TiO2,True,False,2.0586,-3.508055451944444,[3.37],,10.1039/b811536b,Double anions
mp-390,TiO2,True,False,2.0586,-3.508055451944444,[3.2],,10.1039/b906421d,Double anions
mp-390,TiO2,True,False,2.0586,-3.508055451944444,[3.2],,10.1039/b917858a,Double anions
mp-390,TiO2,True,False,2.0586,-3.508055451944444,[3.2],,10.1039/b9nj00245f,Double anions
mp-390,TiO2,True,False,2.0586,-3.508055451944444,[3.6],,10.1039/b9nj00439d,Double anions
mp-390,TiO2,True,False,2.0586,-3.508055451944444,[3.2],,10.1039/b9nj00780f,Double anions
mp-390,TiO2,True,False,2.0586,-3.508055451944444,[3.2],,10.1039/c0cc01237h,Double anions
mp-390,TiO2,True,False,2.0586,-3.508055451944444,[3.2],,10.1039/c0cc01490g,Double anions
mp-390,TiO2,True,False,2.0586,-3.508055451944444,[3.2],,10.1039/c0jm02539a,Double anions
mp-390,TiO2,True,False,2.0586,-3.508055451944444,[3.2],,10.1039/c0jm02685a,Double anions
mp-390,TiO2,True,False,2.0586,-3.508055451944444,[3.2],,10.1039/c1cc11740h,Double anions
mp-390,TiO2,True,False,2.0586,-3.508055451944444,[3.2],,10.1039/c1cc15751e,Double anions
mp-390,TiO2,True,False,2.0586,-3.508055451944444,[3.2],,10.1039/c1cc16060e,Double anions
mp-390,TiO2,True,False,2.0586,-3.508055451944444,[3.1],,10.1039/c1cc16107e,Double anions
mp-390,TiO2,True,False,2.0586,-3.508055451944444,[3.1],300,10.1039/c1cp22515d,Double anions
mp-390,TiO2,True,False,2.0586,-3.508055451944444,[3.2],,10.1039/c1dt11576f,Double anions
mp-390,TiO2,True,False,2.0586,-3.508055451944444,[3.2],,10.1039/c1ee02880d,Double anions
mp-390,TiO2,True,False,2.0586,-3.508055451944444,[3.2],,10.1039/c1gc15692f,Double anions
mp-390,TiO2,True,False,2.0586,-3.508055451944444,[3.0],,10.1039/c1jm13084f,Double anions
mp-390,TiO2,True,False,2.0586,-3.508055451944444,[3.2],,10.1039/c1ra00177a,Double anions
mp-390,TiO2,True,False,2.0586,-3.508055451944444,[3.2],,10.1039/c2an35583c,Double anions
mp-390,TiO2,True,False,2.0586,-3.508055451944444,[0.2],,10.1039/c2cp23039a,Double anions
mp-390,TiO2,True,False,2.0586,-3.508055451944444,[3.2],,10.1039/c2cp40562h,Double anions
mp-390,TiO2,True,False,2.0586,-3.508055451944444,[3.2],,10.1039/c2cp42598j,Double anions
mp-390,TiO2,True,False,2.0586,-3.508055451944444,[3.2],,10.1039/c2cp43354k,Double anions
mp-390,TiO2,True,False,2.0586,-3.508055451944444,[3.0],,10.1039/c2cp43628k,Double anions
mp-390,TiO2,True,False,2.0586,-3.508055451944444,[3.2],,10.1039/c2jm15146d,Double anions
mp-390,TiO2,True,False,2.0586,-3.508055451944444,[0.1],,10.1039/c2jm16178h,Double anions
mp-390,TiO2,True,False,2.0586,-3.508055451944444,[2.1],,10.1039/c2jm16178h,Double anions
mp-390,TiO2,True,False,2.0586,-3.508055451944444,[3.0],,10.1039/c2jm35322a,Double anions
mp-390,TiO2,True,False,2.0586,-3.508055451944444,[3.2],,10.1039/c2nr11617k,Double anions
mp-390,TiO2,True,False,2.0586,-3.508055451944444,[3.2],,10.1039/c2nr33755j,Double anions
mp-390,TiO2,True,False,2.0586,-3.508055451944444,[3.2],,10.1039/c2pp25189b,Double anions
mp-390,TiO2,True,False,2.0586,-3.508055451944444,[3.26],,10.1039/c2ra01067d,Double anions
mp-390,TiO2,True,False,2.0586,-3.508055451944444,[3.2],,10.1039/c2ra01164f,Double anions
mp-390,TiO2,True,False,2.0586,-3.508055451944444,[3.0],,10.1039/c2ra21661b,Double anions
mp-390,TiO2,True,False,2.0586,-3.508055451944444,[3.62],,10.1039/c2ta00174h,Double anions
mp-390,TiO2,True,False,2.0586,-3.508055451944444,[3.2],,10.1039/c3an01966g,Double anions
mp-390,TiO2,True,False,2.0586,-3.508055451944444,[3.2],,10.1039/c3cc42029a,Double anions
mp-390,TiO2,True,False,2.0586,-3.508055451944444,[3.2],,10.1039/c3ce40351c,Double anions
mp-390,TiO2,True,False,2.0586,-3.508055451944444,[2.63],,10.1039/c3ce41668b,Double anions
mp-390,TiO2,True,False,2.0586,-3.508055451944444,[3.2],,10.1039/c3cp50927c,Double anions
mp-390,TiO2,True,False,2.0586,-3.508055451944444,[3.2],,10.1039/c3cp51427g,Double anions
mp-390,TiO2,True,False,2.0586,-3.508055451944444,[3.2],,10.1039/c3cp52665h,Double anions
mp-390,TiO2,True,False,2.0586,-3.508055451944444,[3.2],,10.1039/c3cp54914c,Double anions
mp-390,TiO2,True,False,2.0586,-3.508055451944444,[3.2],,10.1039/c3cp55370a,Double anions
mp-390,TiO2,True,False,2.0586,-3.508055451944444,[4.3],,10.1039/c3cs60147a,Double anions
mp-390,TiO2,True,False,2.0586,-3.508055451944444,[3.2],,10.1039/c3dt50341k,Double anions
mp-390,TiO2,True,False,2.0586,-3.508055451944444,[3.2],,10.1039/c3dt51673c,Double anions
mp-390,TiO2,True,False,2.0586,-3.508055451944444,[3.2],,10.1039/c3nr00778b,Double anions
mp-390,TiO2,True,False,2.0586,-3.508055451944444,[3.2],,10.1039/c3nr02273k,Double anions
mp-390,TiO2,True,False,2.0586,-3.508055451944444,[3.2],,10.1039/c3nr02404k,Double anions
mp-390,TiO2,True,False,2.0586,-3.508055451944444,[3.2],,10.1039/c3nr34142a,Double anions
mp-390,TiO2,True,False,2.0586,-3.508055451944444,[3.2],,10.1039/c3nr34203d,Double anions
mp-390,TiO2,True,False,2.0586,-3.508055451944444,[3.2],,10.1039/c3pp50167a,Double anions