mpids,formula,is_stable,theoretical,band_gap,formation_energy_per_atom,Value,Temperature_raw_value,DOI,compound_type
mp-390,TiO2,True,False,2.0586,-3.508055451944444,[3.25],,10.1007/s10904-018-0872-1,Double anions
mp-390,TiO2,True,False,2.0586,-3.508055451944444,[3.2],,10.1007/s10904-019-01093-4,Double anions
mp-390,TiO2,True,False,2.0586,-3.508055451944444,[3.4],,10.1007/s10904-020-01722-3,Double anions
mp-390,TiO2,True,False,2.0586,-3.508055451944444,[3.1],,10.1007/s10934-010-9369-1,Double anions
mp-390,TiO2,True,False,2.0586,-3.508055451944444,[3.28],,10.1007/s10934-011-9561-y,Double anions
mp-390,TiO2,True,False,2.0586,-3.508055451944444,[3.2],,10.1007/s10934-016-0327-4,Double anions
mp-390,TiO2,True,False,2.0586,-3.508055451944444,[1.98],,10.1007/s10934-018-0594-3,Double anions
mp-390,TiO2,True,False,2.0586,-3.508055451944444,[3.2],,10.1007/s10948-014-2945-x,Double anions
mp-390,TiO2,True,False,2.0586,-3.508055451944444,[3.2],,10.1007/s10971-008-1763-7,Double anions
mp-390,TiO2,True,False,2.0586,-3.508055451944444,[3.2],,10.1007/s10971-009-1903-8,Double anions
mp-390,TiO2,True,False,2.0586,-3.508055451944444,[3.2],,10.1007/s10971-009-2007-1,Double anions
mp-390,TiO2,True,False,2.0586,-3.508055451944444,[3.29],,10.1007/s10971-011-2401-3,Double anions
mp-390,TiO2,True,False,2.0586,-3.508055451944444,[3.3],,10.1007/s10971-011-2445-4,Double anions
mp-390,TiO2,True,False,2.0586,-3.508055451944444,[3.2],,10.1007/s10971-011-2525-5,Double anions
mp-390,TiO2,True,False,2.0586,-3.508055451944444,[3.5],,10.1007/s10971-011-2525-5,Double anions
mp-390,TiO2,True,False,2.0586,-3.508055451944444,[3.2],,10.1007/s10971-012-2823-6,Double anions
mp-390,TiO2,True,False,2.0586,-3.508055451944444,[3.2],,10.1007/s10971-013-3154-y,Double anions
mp-390,TiO2,True,False,2.0586,-3.508055451944444,[3.2],,10.1007/s10971-013-3240-1,Double anions
mp-390,TiO2,True,False,2.0586,-3.508055451944444,[3.1],,10.1007/s10971-013-3258-4,Double anions
mp-390,TiO2,True,False,2.0586,-3.508055451944444,[3.3],,10.1007/s10971-015-3939-2,Double anions
mp-390,TiO2,True,False,2.0586,-3.508055451944444,[3.2],,10.1007/s10971-016-4179-9,Double anions
mp-390,TiO2,True,False,2.0586,-3.508055451944444,[3.0],,10.1007/s10971-016-4179-9,Double anions
mp-390,TiO2,True,False,2.0586,-3.508055451944444,[3.19],,10.1007/s10971-016-4241-7,Double anions
mp-390,TiO2,True,False,2.0586,-3.508055451944444,[3.15],,10.1007/s10971-017-4456-2,Double anions
mp-390,TiO2,True,False,2.0586,-3.508055451944444,[3.13],,10.1007/s10971-017-4456-2,Double anions
mp-390,TiO2,True,False,2.0586,-3.508055451944444,[3.57],,10.1007/s10971-018-4643-9,Double anions
mp-390,TiO2,True,False,2.0586,-3.508055451944444,[3.2],,10.1007/s10971-018-4684-0,Double anions
mp-390,TiO2,True,False,2.0586,-3.508055451944444,[3.2],,10.1007/s10971-018-4709-8,Double anions
mp-390,TiO2,True,False,2.0586,-3.508055451944444,[3.2],,10.1007/s10971-019-05197-8,Double anions
mp-390,TiO2,True,False,2.0586,-3.508055451944444,[3.02],,10.1007/s10971-019-05197-8,Double anions
mp-390,TiO2,True,False,2.0586,-3.508055451944444,[3.03],,10.1007/s10971-020-05333-9,Double anions
mp-390,TiO2,True,False,2.0586,-3.508055451944444,[3.0],,10.1007/s10971-020-05388-8,Double anions
mp-390,TiO2,True,False,2.0586,-3.508055451944444,[2.35],,10.1007/s10971-020-05388-8,Double anions
mp-390,TiO2,True,False,2.0586,-3.508055451944444,[3.2],,10.1007/s10971-020-05405-w,Double anions
mp-390,TiO2,True,False,2.0586,-3.508055451944444,[2.1],,10.1007/s10971-020-05405-w,Double anions
mp-390,TiO2,True,False,2.0586,-3.508055451944444,[3.4],,10.1007/s10973-011-1316-0,Double anions
mp-390,TiO2,True,False,2.0586,-3.508055451944444,[3.2],,10.1007/s11051-013-2215-z,Double anions
mp-390,TiO2,True,False,2.0586,-3.508055451944444,[3.28],,10.1007/s11051-013-2215-z,Double anions
mp-390,TiO2,True,False,2.0586,-3.508055451944444,[3.2],,10.1007/s11051-014-2263-z,Double anions
mp-390,TiO2,True,False,2.0586,-3.508055451944444,[3.2],,10.1007/s11051-014-2653-2,Double anions
mp-390,TiO2,True,False,2.0586,-3.508055451944444,[3.2],,10.1007/s11051-015-3155-6,Double anions
mp-390,TiO2,True,False,2.0586,-3.508055451944444,[3.6],,10.1007/s11051-015-3260-6,Double anions
mp-390,TiO2,True,False,2.0586,-3.508055451944444,[3.2],,10.1007/s11051-015-3260-6,Double anions
mp-390,TiO2,True,False,2.0586,-3.508055451944444,[3.2],,10.1007/s11051-016-3420-3,Double anions
mp-390,TiO2,True,False,2.0586,-3.508055451944444,[3.2],,10.1007/s11051-017-3806-x,Double anions
mp-390,TiO2,True,False,2.0586,-3.508055451944444,[3.05],,10.1007/s11051-017-3806-x,Double anions
mp-390,TiO2,True,False,2.0586,-3.508055451944444,[3.2],,10.1007/s11051-017-3919-2,Double anions
mp-390,TiO2,True,False,2.0586,-3.508055451944444,[3.23],,10.1007/s11051-019-4488-3,Double anions
mp-390,TiO2,True,False,2.0586,-3.508055451944444,[3.07],,10.1007/s11051-019-4582-6,Double anions
mp-390,TiO2,True,False,2.0586,-3.508055451944444,[3.37],,10.1007/s11082-018-1647-1,Double anions
mp-390,TiO2,True,False,2.0586,-3.508055451944444,[3.2],,10.1007/s11144-011-0295-2,Double anions
mp-390,TiO2,True,False,2.0586,-3.508055451944444,[3.2],,10.1007/s11144-014-0768-1,Double anions
mp-390,TiO2,True,False,2.0586,-3.508055451944444,[3.0],,10.1007/s11144-014-0768-1,Double anions
mp-390,TiO2,True,False,2.0586,-3.508055451944444,[3.2],,10.1007/s11144-017-1182-2,Double anions
mp-390,TiO2,True,False,2.0586,-3.508055451944444,[3.2],,10.1007/s11164-009-0027-7,Double anions
mp-390,TiO2,True,False,2.0586,-3.508055451944444,[3.2],,10.1007/s11164-010-0203-9,Double anions
mp-390,TiO2,True,False,2.0586,-3.508055451944444,[3.2],,10.1007/s11164-011-0277-z,Double anions
mp-390,TiO2,True,False,2.0586,-3.508055451944444,[3.2],,10.1007/s11164-011-0465-x,Double anions
mp-390,TiO2,True,False,2.0586,-3.508055451944444,[3.1],,10.1007/s11164-012-0756-x,Double anions
mp-390,TiO2,True,False,2.0586,-3.508055451944444,[3.2],,10.1007/s11164-014-1539-3,Double anions
mp-390,TiO2,True,False,2.0586,-3.508055451944444,[3.2],,10.1007/s11164-014-1628-3,Double anions
mp-390,TiO2,True,False,2.0586,-3.508055451944444,[2.93],,10.1007/s11164-014-1816-1,Double anions
mp-390,TiO2,True,False,2.0586,-3.508055451944444,[3.2],,10.1007/s11164-014-1816-1,Double anions
mp-390,TiO2,True,False,2.0586,-3.508055451944444,[3.0],,10.1007/s11164-015-2022-5,Double anions
mp-390,TiO2,True,False,2.0586,-3.508055451944444,[2.9],,10.1007/s11164-015-2236-6,Double anions
mp-390,TiO2,True,False,2.0586,-3.508055451944444,[3.2],,10.1007/s11164-016-2595-7,Double anions
mp-390,TiO2,True,False,2.0586,-3.508055451944444,[3.2],,10.1007/s11164-018-3449-2,Double anions
mp-390,TiO2,True,False,2.0586,-3.508055451944444,[3.0],,10.1007/s11164-018-3469-y,Double anions
mp-390,TiO2,True,False,2.0586,-3.508055451944444,[3.2],,10.1007/s11164-018-3495-9,Double anions
mp-390,TiO2,True,False,2.0586,-3.508055451944444,[3.2],,10.1007/s11164-018-3543-5,Double anions
mp-390,TiO2,True,False,2.0586,-3.508055451944444,[3.1],,10.1007/s11164-018-3561-3,Double anions
mp-390,TiO2,True,False,2.0586,-3.508055451944444,[3.2],,10.1007/s11164-019-03813-4,Double anions
mp-390,TiO2,True,False,2.0586,-3.508055451944444,[3.2],,10.1007/s11164-019-03912-2,Double anions
mp-390,TiO2,True,False,2.0586,-3.508055451944444,[3.2],,10.1007/s11243-010-9457-8,Double anions
mp-390,TiO2,True,False,2.0586,-3.508055451944444,[2.84],,10.1007/s11243-010-9457-8,Double anions
mp-390,TiO2,True,False,2.0586,-3.508055451944444,[3.2],,10.1007/s11243-019-00312-8,Double anions
mp-390,TiO2,True,False,2.0586,-3.508055451944444,[2.8],,10.1007/s11243-019-00312-8,Double anions
mp-390,TiO2,True,False,2.0586,-3.508055451944444,[3.2],,10.1007/s11243-020-00397-6,Double anions
mp-390,TiO2,True,False,2.0586,-3.508055451944444,[3.4],,10.1007/s11244-007-9026-3,Double anions
mp-390,TiO2,True,False,2.0586,-3.508055451944444,[3.2],,10.1007/s11244-009-9192-6,Double anions
mp-390,TiO2,True,False,2.0586,-3.508055451944444,[3.0],,10.1007/s11244-016-0711-y,Double anions
mp-390,TiO2,True,False,2.0586,-3.508055451944444,[3.2],,10.1007/s11244-017-0763-7,Double anions
mp-390,TiO2,True,False,2.0586,-3.508055451944444,[3.2],,10.1007/s11244-017-0805-1,Double anions
mp-390,TiO2,True,False,2.0586,-3.508055451944444,[3.2],,10.1007/s11244-018-0981-7,Double anions
mp-390,TiO2,True,False,2.0586,-3.508055451944444,[3.2],,10.1007/s11244-020-01307-x,Double anions
mp-390,TiO2,True,False,2.0586,-3.508055451944444,[2.9],,10.1007/s11244-020-01307-x,Double anions
mp-390,TiO2,True,False,2.0586,-3.508055451944444,[3.3],,10.1007/s11244-020-01322-y,Double anions
mp-390,TiO2,True,False,2.0586,-3.508055451944444,[3.2],,10.1007/s11244-020-01362-4,Double anions
mp-390,TiO2,True,False,2.0586,-3.508055451944444,[3.2],,10.1007/s11270-020-04774-w,Double anions
mp-390,TiO2,True,False,2.0586,-3.508055451944444,[3.2],,10.1007/s11274-015-1855-9,Double anions
mp-390,TiO2,True,False,2.0586,-3.508055451944444,[3.03],,10.1007/s11356-012-0953-6,Double anions
mp-390,TiO2,True,False,2.0586,-3.508055451944444,[3.2],,10.1007/s11356-015-4775-1,Double anions
mp-390,TiO2,True,False,2.0586,-3.508055451944444,[2.1],,10.1007/s11356-015-4775-1,Double anions
mp-390,TiO2,True,False,2.0586,-3.508055451944444,[3.4],,10.1007/s11356-016-6438-2,Double anions
mp-390,TiO2,True,False,2.0586,-3.508055451944444,[3.24],,10.1007/s11356-016-6779-x,Double anions
mp-390,TiO2,True,False,2.0586,-3.508055451944444,[3.2],,10.1007/s11356-016-7199-7,Double anions
mp-390,TiO2,True,False,2.0586,-3.508055451944444,[3.0],,10.1007/s11356-017-0252-3,Double anions
mp-390,TiO2,True,False,2.0586,-3.508055451944444,[3.05],,10.1007/s11356-018-2201-1,Double anions
mp-390,TiO2,True,False,2.0586,-3.508055451944444,[3.25],,10.1007/s11356-018-2679-6,Double anions
mp-390,TiO2,True,False,2.0586,-3.508055451944444,[3.2],,10.1007/s11356-019-05124-y,Double anions
mp-390,TiO2,True,False,2.0586,-3.508055451944444,[2.0],,10.1007/s11356-019-05124-y,Double anions
mp-390,TiO2,True,False,2.0586,-3.508055451944444,[3.2],,10.1007/s11356-019-06045-6,Double anions
mp-390,TiO2,True,False,2.0586,-3.508055451944444,[3.2],,10.1007/s11356-019-06728-0,Double anions
mp-390,TiO2,True,False,2.0586,-3.508055451944444,[3.25],,10.1007/s11356-019-06728-0,Double anions
mp-390,TiO2,True,False,2.0586,-3.508055451944444,[3.3],,10.1007/s11434-014-0186-9,Double anions
mp-390,TiO2,True,False,2.0586,-3.508055451944444,[3.2],,10.1007/s11434-015-0743-x,Double anions
mp-390,TiO2,True,False,2.0586,-3.508055451944444,[3.2],,10.1007/s11468-013-9598-7,Double anions
mp-390,TiO2,True,False,2.0586,-3.508055451944444,[3.0],,10.1007/s11468-018-0693-7,Double anions
mp-390,TiO2,True,False,2.0586,-3.508055451944444,[2.93],,10.1007/s11468-018-0693-7,Double anions
mp-390,TiO2,True,False,2.0586,-3.508055451944444,[3.2],,10.1007/s11581-014-1172-6,Double anions
mp-390,TiO2,True,False,2.0586,-3.508055451944444,[3.0],,10.1007/s11581-017-2304-6,Double anions
mp-390,TiO2,True,False,2.0586,-3.508055451944444,[3.2],,10.1007/s11581-017-2338-9,Double anions
mp-390,TiO2,True,False,2.0586,-3.508055451944444,[3.2],,10.1007/s11581-019-02941-6,Double anions
mp-390,TiO2,True,False,2.0586,-3.508055451944444,[2.93],,10.1007/s11581-019-02941-6,Double anions
mp-390,TiO2,True,False,2.0586,-3.508055451944444,[5.02],,10.1007/s11664-019-07265-9,Double anions
mp-390,TiO2,True,False,2.0586,-3.508055451944444,[3.039],,10.1007/s11664-019-07887-z,Double anions
mp-390,TiO2,True,False,2.0586,-3.508055451944444,[3.0],,10.1007/s11665-014-1131-4,Double anions
mp-390,TiO2,True,False,2.0586,-3.508055451944444,[3.2],,10.1007/s11665-014-1326-8,Double anions
mp-390,TiO2,True,False,2.0586,-3.508055451944444,[3.3],,10.1007/s11665-017-2818-0,Double anions
mp-390,TiO2,True,False,2.0586,-3.508055451944444,[3.08],,10.1007/s11666-020-01022-9,Double anions
mp-390,TiO2,True,False,2.0586,-3.508055451944444,[2.94],,10.1007/s11671-010-9720-0,Double anions
mp-390,TiO2,True,False,2.0586,-3.508055451944444,[3.2],,10.1007/s11837-015-1749-1,Double anions
mp-390,TiO2,True,False,2.0586,-3.508055451944444,[3.0],,10.1007/s11998-015-9718-8,Double anions
mp-390,TiO2,True,False,2.0586,-3.508055451944444,[3.2],,10.1007/s11998-016-9859-4,Double anions
mp-390,TiO2,True,False,2.0586,-3.508055451944444,[1.9],,10.1007/s12034-018-1593-3,Double anions
mp-390,TiO2,True,False,2.0586,-3.508055451944444,[3.28],,10.1007/s12034-018-1678-z,Double anions
mp-390,TiO2,True,False,2.0586,-3.508055451944444,[2.96],,10.1007/s12034-018-1678-z,Double anions
mp-390,TiO2,True,False,2.0586,-3.508055451944444,[3.2],,10.1007/s12034-020-02269-2,Double anions
mp-390,TiO2,True,False,2.0586,-3.508055451944444,[2.9],,10.1007/s12039-018-1581-6,Double anions
mp-390,TiO2,True,False,2.0586,-3.508055451944444,[3.6],,10.1007/s12200-011-0188-z,Double anions
mp-390,TiO2,True,False,2.0586,-3.508055451944444,[3.2],,10.1007/s12598-020-01499-x,Double anions
mp-390,TiO2,True,False,2.0586,-3.508055451944444,[3.2],,10.1007/s12648-012-0002-9,Double anions
mp-390,TiO2,True,False,2.0586,-3.508055451944444,[3.2],,10.1007/s12649-014-9335-2,Double anions
mp-390,TiO2,True,False,2.0586,-3.508055451944444,[3.2],,10.1007/s12649-019-00928-y,Double anions
mp-390,TiO2,True,False,2.0586,-3.508055451944444,[3.2],,10.1007/s12665-017-6924-y,Double anions
mp-390,TiO2,True,False,2.0586,-3.508055451944444,[3.2],,10.1007/s12666-015-0563-3,Double anions
mp-390,TiO2,True,False,2.0586,-3.508055451944444,[3.2],,10.1007/s12678-013-0177-7,Double anions
mp-390,TiO2,True,False,2.0586,-3.508055451944444,[3.2],,10.1007/s13197-019-03903-6,Double anions
mp-390,TiO2,True,False,2.0586,-3.508055451944444,[3.2],,10.1007/s13201-017-0546-0,Double anions
mp-390,TiO2,True,False,2.0586,-3.508055451944444,[3.2],,10.1007/s13203-014-0051-4,Double anions
mp-390,TiO2,True,False,2.0586,-3.508055451944444,[3.0],,10.1007/s13204-013-0264-3,Double anions
mp-390,TiO2,True,False,2.0586,-3.508055451944444,[3.2],,10.1007/s13204-017-0565-z,Double anions
mp-390,TiO2,True,False,2.0586,-3.508055451944444,[3.1],,10.1007/s13204-018-0921-7,Double anions
mp-390,TiO2,True,False,2.0586,-3.508055451944444,[3.2],,10.1007/s13204-018-0921-7,Double anions
mp-390,TiO2,True,False,2.0586,-3.508055451944444,[3.26],,10.1007/s13204-019-01020-6,Double anions
mp-390,TiO2,True,False,2.0586,-3.508055451944444,[3.2],,10.1007/s13204-020-01430-x,Double anions
mp-390,TiO2,True,False,2.0586,-3.508055451944444,[3.2],,10.1007/s13204-020-01493-w,Double anions
mp-390,TiO2,True,False,2.0586,-3.508055451944444,[3.02],,10.1007/s13204-020-01493-w,Double anions
mp-390,TiO2,True,False,2.0586,-3.508055451944444,[2.5],,10.1007/s13726-020-00810-y,Double anions
mp-390,TiO2,True,False,2.0586,-3.508055451944444,[3.2],,10.1007/s13738-016-0945-4,Double anions
mp-390,TiO2,True,False,2.0586,-3.508055451944444,[3.13],,10.1007/s13738-016-0945-4,Double anions
mp-390,TiO2,True,False,2.0586,-3.508055451944444,[3.4],,10.1007/s13738-019-01821-0,Double anions
mp-390,TiO2,True,False,2.0586,-3.508055451944444,[3.23],,10.1007/s13762-015-0783-4,Double anions
mp-390,TiO2,True,False,2.0586,-3.508055451944444,[3.2],,10.1007/s13762-016-1239-1,Double anions
mp-390,TiO2,True,False,2.0586,-3.508055451944444,[3.37],,10.1007/s13762-016-1239-1,Double anions
mp-390,TiO2,True,False,2.0586,-3.508055451944444,[3.0],,10.1007/s40011-012-0081-6,Double anions
mp-390,TiO2,True,False,2.0586,-3.508055451944444,[2.92],,10.1007/s40201-019-00352-3,Double anions
mp-390,TiO2,True,False,2.0586,-3.508055451944444,[3.2],,10.1007/s40726-016-0045-1,Double anions
mp-390,TiO2,True,False,2.0586,-3.508055451944444,[3.2],,10.1007/s40820-018-0222-4,Double anions
mp-390,TiO2,True,False,2.0586,-3.508055451944444,[2.8],,10.1007/s40974-020-00162-6,Double anions
mp-390,TiO2,True,False,2.0586,-3.508055451944444,[3.35],,10.1007/s40974-020-00162-6,Double anions
mp-390,TiO2,True,False,2.0586,-3.508055451944444,[2.68],,10.1007/s41204-020-00081-1,Double anions
mp-390,TiO2,True,False,2.0586,-3.508055451944444,[3.2],,10.1007/s41779-019-00329-3,Double anions
mp-390,TiO2,True,False,2.0586,-3.508055451944444,[3.1],,10.1007/s42452-019-0375-x,Double anions
mp-390,TiO2,True,False,2.0586,-3.508055451944444,[1.8],,10.1007/s42452-019-0375-x,Double anions
mp-390,TiO2,True,False,2.0586,-3.508055451944444,[3.2],,10.1007/s42452-019-0851-3,Double anions
mp-390,TiO2,True,False,2.0586,-3.508055451944444,[3.2],,10.1007/s42452-020-1969-z,Double anions
mp-390,TiO2,True,False,2.0586,-3.508055451944444,[3.1],,10.1007/s42452-020-2190-9,Double anions
mp-390,TiO2,True,False,2.0586,-3.508055451944444,[3.2],,10.1007/s42452-020-2508-7,Double anions
mp-390,TiO2,True,False,2.0586,-3.508055451944444,[3.26],,10.1038/ncomms3651,Double anions
mp-390,TiO2,True,False,2.0586,-3.508055451944444,[3.0],,10.1038/npjcompumats.2016.6,Double anions
mp-390,TiO2,True,False,2.0586,-3.508055451944444,[3.3],,10.1038/s41467-018-06776-z,Double anions
mp-390,TiO2,True,False,2.0586,-3.508055451944444,[3.2],,10.1038/s41467-019-11623-w,Double anions
mp-390,TiO2,True,False,2.0586,-3.508055451944444,[3.29],,10.1038/s41467-019-11623-w,Double anions
mp-390,TiO2,True,False,2.0586,-3.508055451944444,[3.0],,10.1038/s41578-020-0182-4,Double anions
mp-390,TiO2,True,False,2.0586,-3.508055451944444,[3.2],,10.1038/s41598-018-27135-4,Double anions
mp-390,TiO2,True,False,2.0586,-3.508055451944444,[3.2],,10.1038/s41598-019-47710-7,Double anions
mp-390,TiO2,True,False,2.0586,-3.508055451944444,[2.12],,10.1038/s41598-019-47710-7,Double anions
mp-390,TiO2,True,False,2.0586,-3.508055451944444,[0.98],,10.1038/s41598-019-55518-8,Double anions
mp-390,TiO2,True,False,2.0586,-3.508055451944444,[3.02],,10.1038/s41598-019-55518-8,Double anions
mp-390,TiO2,True,False,2.0586,-3.508055451944444,[2.89],,10.1038/s41598-019-55518-8,Double anions
mp-390,TiO2,True,False,2.0586,-3.508055451944444,[2.24],,10.1038/s41598-019-55518-8,Double anions
mp-390,TiO2,True,False,2.0586,-3.508055451944444,[3.2],,10.1038/s41598-020-62425-w,Double anions
mp-390,TiO2,True,False,2.0586,-3.508055451944444,[3.0],,10.1038/s41598-020-67683-2,Double anions
mp-390,TiO2,True,False,2.0586,-3.508055451944444,[3.1],,10.1038/srep00591,Double anions
mp-390,TiO2,True,False,2.0586,-3.508055451944444,[3.0],,10.1038/srep07045,Double anions
mp-390,TiO2,True,False,2.0586,-3.508055451944444,[3.2],,10.1038/srep10632,Double anions
mp-390,TiO2,True,False,2.0586,-3.508055451944444,[3.3],,10.1038/srep11374,Double anions
mp-390,TiO2,True,False,2.0586,-3.508055451944444,[3.4],,10.1038/srep16028,Double anions
mp-390,TiO2,True,False,2.0586,-3.508055451944444,[1.0],,10.1038/srep19754,Double anions
mp-390,TiO2,True,False,2.0586,-3.508055451944444,[3.2],,10.1038/srep19754,Double anions
mp-390,TiO2,True,False,2.0586,-3.508055451944444,[3.2],,10.1038/srep25702,Double anions
mp-390,TiO2,True,False,2.0586,-3.508055451944444,[3.17],,10.1038/srep25702,Double anions
mp-390,TiO2,True,False,2.0586,-3.508055451944444,[2.89],,10.1038/srep30587,Double anions
mp-390,TiO2,True,False,2.0586,-3.508055451944444,[3.03],,10.1038/srep30587,Double anions
mp-390,TiO2,True,False,2.0586,-3.508055451944444,[3.0],,10.1038/srep45715,Double anions
mp-390,TiO2,True,False,2.0586,-3.508055451944444,[3.05],,10.1038/srep45715,Double anions
mp-390,TiO2,True,False,2.0586,-3.508055451944444,[1.8],,10.1134/S0036024420110345,Double anions
mp-390,TiO2,True,False,2.0586,-3.508055451944444,[3.2],,10.1140/epjp/s13360-020-00241-x,Double anions
mp-390,TiO2,True,False,2.0586,-3.508055451944444,[2.05],,10.1186/1556-276X-9-34,Double anions
mp-390,TiO2,True,False,2.0586,-3.508055451944444,[2.21],,10.1186/1556-276X-9-46,Double anions
mp-390,TiO2,True,False,2.0586,-3.508055451944444,[3.25],,10.1186/1556-276X-9-46,Double anions
mp-390,TiO2,True,False,2.0586,-3.508055451944444,[3.2],,10.1186/1752-153X-7-41,Double anions
mp-390,TiO2,True,False,2.0586,-3.508055451944444,[3.2],,10.1186/s11671-015-0977-1,Double anions
mp-390,TiO2,True,False,2.0586,-3.508055451944444,[3.05],,10.1186/s11671-015-0977-1,Double anions
mp-390,TiO2,True,False,2.0586,-3.508055451944444,[2.81],,10.1186/s11671-015-1061-6,Double anions
mp-390,TiO2,True,False,2.0586,-3.508055451944444,[2.58],,10.1186/s11671-015-1061-6,Double anions