mpids,formula,is_stable,theoretical,band_gap,formation_energy_per_atom,Value,Temperature_raw_value,DOI,compound_type
mp-390,TiO2,True,False,2.0586,-3.508055451944444,[3.2],,10.1016/j.matpr.2019.02.123,Double anions
mp-390,TiO2,True,False,2.0586,-3.508055451944444,[4.7],,10.1016/j.matpr.2019.02.154,Double anions
mp-390,TiO2,True,False,2.0586,-3.508055451944444,[3.92],,10.1016/j.matpr.2019.03.210,Double anions
mp-390,TiO2,True,False,2.0586,-3.508055451944444,[3.11],,10.1016/j.matpr.2019.04.049,Double anions
mp-390,TiO2,True,False,2.0586,-3.508055451944444,[2.98],,10.1016/j.matpr.2019.04.104,Double anions
mp-390,TiO2,True,False,2.0586,-3.508055451944444,[3.24],,10.1016/j.matpr.2019.05.245,Double anions
mp-390,TiO2,True,False,2.0586,-3.508055451944444,[3.2],,10.1016/j.matpr.2019.05.275,Double anions
mp-390,TiO2,True,False,2.0586,-3.508055451944444,[3.0],,10.1016/j.matpr.2019.05.275,Double anions
mp-390,TiO2,True,False,2.0586,-3.508055451944444,[2.85],,10.1016/j.matpr.2019.05.275,Double anions
mp-390,TiO2,True,False,2.0586,-3.508055451944444,[3.2],,10.1016/j.matpr.2019.06.176,Double anions
mp-390,TiO2,True,False,2.0586,-3.508055451944444,[3.03],,10.1016/j.matpr.2019.06.176,Double anions
mp-390,TiO2,True,False,2.0586,-3.508055451944444,[3.41],,10.1016/j.matpr.2019.06.200,Double anions
mp-390,TiO2,True,False,2.0586,-3.508055451944444,[0.89],,10.1016/j.matpr.2019.06.453,Double anions
mp-390,TiO2,True,False,2.0586,-3.508055451944444,[2.96],,10.1016/j.matpr.2019.06.454,Double anions
mp-390,TiO2,True,False,2.0586,-3.508055451944444,[8.5],,10.1016/j.matpr.2019.06.482,Double anions
mp-390,TiO2,True,False,2.0586,-3.508055451944444,[3.0],,10.1016/j.matpr.2019.06.482,Double anions
mp-390,TiO2,True,False,2.0586,-3.508055451944444,[3.2],,10.1016/j.matpr.2019.06.565,Double anions
mp-390,TiO2,True,False,2.0586,-3.508055451944444,[3.4],,10.1016/j.matpr.2019.06.582,Double anions
mp-390,TiO2,True,False,2.0586,-3.508055451944444,[3.23],,10.1016/j.matpr.2019.06.611,Double anions
mp-390,TiO2,True,False,2.0586,-3.508055451944444,[3.025],,10.1016/j.matpr.2019.09.203,Double anions
mp-390,TiO2,True,False,2.0586,-3.508055451944444,[3.0],,10.1016/j.matpr.2019.10.146,Double anions
mp-390,TiO2,True,False,2.0586,-3.508055451944444,[5.12],,10.1016/j.matpr.2019.11.022,Double anions
mp-390,TiO2,True,False,2.0586,-3.508055451944444,[3.2],,10.1016/j.matpr.2019.11.146,Double anions
mp-390,TiO2,True,False,2.0586,-3.508055451944444,[3.2],,10.1016/j.matpr.2019.11.194,Double anions
mp-390,TiO2,True,False,2.0586,-3.508055451944444,[3.18],,10.1016/j.matpr.2019.11.194,Double anions
mp-390,TiO2,True,False,2.0586,-3.508055451944444,[2.96],,10.1016/j.matpr.2019.12.283,Double anions
mp-390,TiO2,True,False,2.0586,-3.508055451944444,[3.3],,10.1016/j.matpr.2020.01.606,Double anions
mp-390,TiO2,True,False,2.0586,-3.508055451944444,[3.5],,10.1016/j.matpr.2020.02.044,Double anions
mp-390,TiO2,True,False,2.0586,-3.508055451944444,[3.37],,10.1016/j.matpr.2020.02.057,Double anions
mp-390,TiO2,True,False,2.0586,-3.508055451944444,[3.06],,10.1016/j.matpr.2020.02.065,Double anions
mp-390,TiO2,True,False,2.0586,-3.508055451944444,[2.75],,10.1016/j.matpr.2020.02.088,Double anions
mp-390,TiO2,True,False,2.0586,-3.508055451944444,[3.27],,10.1016/j.matpr.2020.03.206,Double anions
mp-390,TiO2,True,False,2.0586,-3.508055451944444,[3.56],,10.1016/j.matpr.2020.03.329,Double anions
mp-390,TiO2,True,False,2.0586,-3.508055451944444,[3.2],,10.1016/j.matpr.2020.03.698,Double anions
mp-390,TiO2,True,False,2.0586,-3.508055451944444,[3.0],,10.1016/j.matpr.2020.04.131,Double anions
mp-390,TiO2,True,False,2.0586,-3.508055451944444,[3.2],,10.1016/j.matpr.2020.04.186,Double anions
mp-390,TiO2,True,False,2.0586,-3.508055451944444,[3.0],,10.1016/j.matpr.2020.04.196,Double anions
mp-390,TiO2,True,False,2.0586,-3.508055451944444,[3.2],,10.1016/j.matpr.2020.04.580,Double anions
mp-390,TiO2,True,False,2.0586,-3.508055451944444,[3.37],,10.1016/j.matpr.2020.04.748,Double anions
mp-390,TiO2,True,False,2.0586,-3.508055451944444,[3.59],,10.1016/j.matpr.2020.04.805,Double anions
mp-390,TiO2,True,False,2.0586,-3.508055451944444,[3.12],,10.1016/j.matpr.2020.04.805,Double anions
mp-390,TiO2,True,False,2.0586,-3.508055451944444,[3.63],,10.1016/j.matpr.2020.05.109,Double anions
mp-390,TiO2,True,False,2.0586,-3.508055451944444,[3.2],,10.1016/j.matpr.2020.05.109,Double anions
mp-390,TiO2,True,False,2.0586,-3.508055451944444,[3.41],,10.1016/j.matpr.2020.05.109,Double anions
mp-390,TiO2,True,False,2.0586,-3.508055451944444,[3.11],,10.1016/j.matpr.2020.05.109,Double anions
mp-390,TiO2,True,False,2.0586,-3.508055451944444,[3.2],,10.1016/j.matpr.2020.05.529,Double anions
mp-390,TiO2,True,False,2.0586,-3.508055451944444,[3.059],,10.1016/j.matpr.2020.05.529,Double anions
mp-390,TiO2,True,False,2.0586,-3.508055451944444,[3.2],,10.1016/j.matpr.2020.05.567,Double anions
mp-390,TiO2,True,False,2.0586,-3.508055451944444,[3.2],,10.1016/j.optmat.2005.09.028,Double anions
mp-390,TiO2,True,False,2.0586,-3.508055451944444,[3.8],,10.1016/j.optmat.2006.10.032,Double anions
mp-390,TiO2,True,False,2.0586,-3.508055451944444,[3.3],,10.1016/j.optmat.2006.10.032,Double anions
mp-390,TiO2,True,False,2.0586,-3.508055451944444,[3.2],,10.1016/j.optmat.2006.10.032,Double anions
mp-390,TiO2,True,False,2.0586,-3.508055451944444,[3.15],,10.1016/j.optmat.2007.02.021,Double anions
mp-390,TiO2,True,False,2.0586,-3.508055451944444,[3.2],,10.1016/j.optmat.2007.05.038,Double anions
mp-390,TiO2,True,False,2.0586,-3.508055451944444,[3.38],,10.1016/j.optmat.2007.06.010,Double anions
mp-390,TiO2,True,False,2.0586,-3.508055451944444,[3.2],,10.1016/j.optmat.2008.05.009,Double anions
mp-390,TiO2,True,False,2.0586,-3.508055451944444,[3.2],,10.1016/j.optmat.2008.05.011,Double anions
mp-390,TiO2,True,False,2.0586,-3.508055451944444,[3.0],,10.1016/j.optmat.2008.10.018,Double anions
mp-390,TiO2,True,False,2.0586,-3.508055451944444,[3.68],300,10.1016/j.optmat.2009.07.011,Double anions
mp-390,TiO2,True,False,2.0586,-3.508055451944444,[3.05],,10.1016/j.optmat.2011.02.043,Double anions
mp-390,TiO2,True,False,2.0586,-3.508055451944444,[3.2],,10.1016/j.optmat.2011.04.041,Double anions
mp-390,TiO2,True,False,2.0586,-3.508055451944444,[3.43],,10.1016/j.optmat.2012.06.007,Double anions
mp-390,TiO2,True,False,2.0586,-3.508055451944444,[3.5],,10.1016/j.optmat.2012.06.007,Double anions
mp-390,TiO2,True,False,2.0586,-3.508055451944444,[3.72],600,10.1016/j.optmat.2013.08.030,Double anions
mp-390,TiO2,True,False,2.0586,-3.508055451944444,[3.18],,10.1016/j.optmat.2014.01.037,Double anions
mp-390,TiO2,True,False,2.0586,-3.508055451944444,[3.35],400–700,10.1016/j.optmat.2014.02.033,Double anions
mp-390,TiO2,True,False,2.0586,-3.508055451944444,[3.0],,10.1016/j.optmat.2015.02.028,Double anions
mp-390,TiO2,True,False,2.0586,-3.508055451944444,[3.42],,10.1016/j.optmat.2015.05.011,Double anions
mp-390,TiO2,True,False,2.0586,-3.508055451944444,[3.2],,10.1016/j.optmat.2015.05.011,Double anions
mp-390,TiO2,True,False,2.0586,-3.508055451944444,[3.0],,10.1016/j.optmat.2015.06.003,Double anions
mp-390,TiO2,True,False,2.0586,-3.508055451944444,[3.13],,10.1016/j.optmat.2015.07.040,Double anions
mp-390,TiO2,True,False,2.0586,-3.508055451944444,[3.2],,10.1016/j.optmat.2015.12.016,Double anions
mp-390,TiO2,True,False,2.0586,-3.508055451944444,[3.2],,10.1016/j.optmat.2016.01.010,Double anions
mp-390,TiO2,True,False,2.0586,-3.508055451944444,[3.16],,10.1016/j.optmat.2016.03.015,Double anions
mp-390,TiO2,True,False,2.0586,-3.508055451944444,[3.2],,10.1016/j.optmat.2016.05.026,Double anions
mp-390,TiO2,True,False,2.0586,-3.508055451944444,[3.2],,10.1016/j.optmat.2016.10.005,Double anions
mp-390,TiO2,True,False,2.0586,-3.508055451944444,[8.2],,10.1016/j.optmat.2016.11.014,Double anions
mp-390,TiO2,True,False,2.0586,-3.508055451944444,[3.2],,10.1016/j.optmat.2017.01.025,Double anions
mp-390,TiO2,True,False,2.0586,-3.508055451944444,[2.8],,10.1016/j.optmat.2017.01.025,Double anions
mp-390,TiO2,True,False,2.0586,-3.508055451944444,[3.2],,10.1016/j.optmat.2017.04.030,Double anions
mp-390,TiO2,True,False,2.0586,-3.508055451944444,[3.45],,10.1016/j.optmat.2017.04.030,Double anions
mp-390,TiO2,True,False,2.0586,-3.508055451944444,[3.44],,10.1016/j.optmat.2017.06.029,Double anions
mp-390,TiO2,True,False,2.0586,-3.508055451944444,[3.2],,10.1016/j.optmat.2017.08.011,Double anions
mp-390,TiO2,True,False,2.0586,-3.508055451944444,[3.21],,10.1016/j.optmat.2017.09.043,Double anions
mp-390,TiO2,True,False,2.0586,-3.508055451944444,[3.2],,10.1016/j.optmat.2017.10.002,Double anions
mp-390,TiO2,True,False,2.0586,-3.508055451944444,[2.88],,10.1016/j.optmat.2018.05.055,Double anions
mp-390,TiO2,True,False,2.0586,-3.508055451944444,[2.17],,10.1016/j.optmat.2018.06.053,Double anions
mp-390,TiO2,True,False,2.0586,-3.508055451944444,[2.98],,10.1016/j.optmat.2018.07.016,Double anions
mp-390,TiO2,True,False,2.0586,-3.508055451944444,[3.0],,10.1016/j.optmat.2018.08.064,Double anions
mp-390,TiO2,True,False,2.0586,-3.508055451944444,[3.2],,10.1016/j.optmat.2018.09.030,Double anions
mp-390,TiO2,True,False,2.0586,-3.508055451944444,[3.0],,10.1016/j.optmat.2018.11.040,Double anions
mp-390,TiO2,True,False,2.0586,-3.508055451944444,[3.2],,10.1016/j.optmat.2018.11.045,Double anions
mp-390,TiO2,True,False,2.0586,-3.508055451944444,[3.39],,10.1016/j.optmat.2018.11.045,Double anions
mp-390,TiO2,True,False,2.0586,-3.508055451944444,[3.2],,10.1016/j.optmat.2018.12.020,Double anions
mp-390,TiO2,True,False,2.0586,-3.508055451944444,[3.26],,10.1016/j.optmat.2018.12.041,Double anions
mp-390,TiO2,True,False,2.0586,-3.508055451944444,[3.0],,10.1016/j.optmat.2019.01.027,Double anions
mp-390,TiO2,True,False,2.0586,-3.508055451944444,[3.0],,10.1016/j.optmat.2019.03.039,Double anions
mp-390,TiO2,True,False,2.0586,-3.508055451944444,[3.2],,10.1016/j.optmat.2019.04.046,Double anions
mp-390,TiO2,True,False,2.0586,-3.508055451944444,[3.05],,10.1016/j.optmat.2019.05.015,Double anions
mp-390,TiO2,True,False,2.0586,-3.508055451944444,[2.44],,10.1016/j.optmat.2019.05.026,Double anions
mp-390,TiO2,True,False,2.0586,-3.508055451944444,[3.1],,10.1016/j.optmat.2019.05.026,Double anions
mp-390,TiO2,True,False,2.0586,-3.508055451944444,[3.2],,10.1016/j.optmat.2019.05.033,Double anions
mp-390,TiO2,True,False,2.0586,-3.508055451944444,[3.2],,10.1016/j.optmat.2019.05.038,Double anions
mp-390,TiO2,True,False,2.0586,-3.508055451944444,[3.2],,10.1016/j.optmat.2019.05.039,Double anions
mp-390,TiO2,True,False,2.0586,-3.508055451944444,[3.2],,10.1016/j.optmat.2019.109224,Double anions
mp-390,TiO2,True,False,2.0586,-3.508055451944444,[3.0],,10.1016/j.optmat.2019.109407,Double anions
mp-390,TiO2,True,False,2.0586,-3.508055451944444,[3.17],,10.1016/j.optmat.2020.109659,Double anions
mp-390,TiO2,True,False,2.0586,-3.508055451944444,[3.02],,10.1016/j.optmat.2020.109748,Double anions
mp-390,TiO2,True,False,2.0586,-3.508055451944444,[2.2],,10.1016/j.optmat.2020.109842,Double anions
mp-390,TiO2,True,False,2.0586,-3.508055451944444,[3.0],,10.1016/j.optmat.2020.109844,Double anions
mp-390,TiO2,True,False,2.0586,-3.508055451944444,[3.21],,10.1016/j.optmat.2020.109844,Double anions
mp-390,TiO2,True,False,2.0586,-3.508055451944444,[1.67],,10.1016/j.optmat.2020.109844,Double anions
mp-390,TiO2,True,False,2.0586,-3.508055451944444,[3.34],,10.1016/j.optmat.2020.109844,Double anions
mp-390,TiO2,True,False,2.0586,-3.508055451944444,[3.0],,10.1016/j.optmat.2020.110126,Double anions
mp-390,TiO2,True,False,2.0586,-3.508055451944444,[3.2],,10.1016/j.physb.2005.12.206,Double anions
mp-390,TiO2,True,False,2.0586,-3.508055451944444,[3.0],,10.1016/j.physb.2007.05.021,Double anions
mp-390,TiO2,True,False,2.0586,-3.508055451944444,[2.14],,10.1016/j.physb.2008.11.032,Double anions
mp-390,TiO2,True,False,2.0586,-3.508055451944444,[3.2],,10.1016/j.physb.2009.08.031,Double anions
mp-390,TiO2,True,False,2.0586,-3.508055451944444,[3.2],,10.1016/j.physb.2009.08.060,Double anions
mp-390,TiO2,True,False,2.0586,-3.508055451944444,[3.2],,10.1016/j.physb.2010.09.039,Double anions
mp-390,TiO2,True,False,2.0586,-3.508055451944444,[2.18],,10.1016/j.physb.2011.05.061,Double anions
mp-390,TiO2,True,False,2.0586,-3.508055451944444,[3.23],,10.1016/j.physb.2011.06.011,Double anions
mp-390,TiO2,True,False,2.0586,-3.508055451944444,[0.17],,10.1016/j.physb.2011.06.011,Double anions
mp-390,TiO2,True,False,2.0586,-3.508055451944444,[3.2],,10.1016/j.physb.2011.08.084,Double anions
mp-390,TiO2,True,False,2.0586,-3.508055451944444,[3.0],,10.1016/j.physb.2011.12.114,Double anions
mp-390,TiO2,True,False,2.0586,-3.508055451944444,[3.2],,10.1016/j.physb.2011.12.128,Double anions
mp-390,TiO2,True,False,2.0586,-3.508055451944444,[2.18],,10.1016/j.physb.2011.12.128,Double anions
mp-390,TiO2,True,False,2.0586,-3.508055451944444,[2.8],,10.1016/j.physb.2011.12.128,Double anions
mp-390,TiO2,True,False,2.0586,-3.508055451944444,[2.0],,10.1016/j.physb.2012.01.085,Double anions
mp-390,TiO2,True,False,2.0586,-3.508055451944444,[3.1],,10.1016/j.physb.2012.01.085,Double anions
mp-390,TiO2,True,False,2.0586,-3.508055451944444,[3.23],,10.1016/j.physb.2012.03.068,Double anions
mp-390,TiO2,True,False,2.0586,-3.508055451944444,[2.811],,10.1016/j.physb.2012.03.068,Double anions
mp-390,TiO2,True,False,2.0586,-3.508055451944444,[0.171],,10.1016/j.physb.2012.03.068,Double anions
mp-390,TiO2,True,False,2.0586,-3.508055451944444,[3.2],,10.1016/j.physb.2012.05.037,Double anions
mp-390,TiO2,True,False,2.0586,-3.508055451944444,[3.17],,10.1016/j.physb.2012.06.019,Double anions
mp-390,TiO2,True,False,2.0586,-3.508055451944444,[1.56],,10.1016/j.physb.2012.06.022,Double anions
mp-390,TiO2,True,False,2.0586,-3.508055451944444,[3.2],,10.1016/j.physb.2013.08.006,Double anions
mp-390,TiO2,True,False,2.0586,-3.508055451944444,[3.22],,10.1016/j.physb.2014.09.045,Double anions
mp-390,TiO2,True,False,2.0586,-3.508055451944444,[3.26],,10.1016/j.physb.2015.08.030,Double anions
mp-390,TiO2,True,False,2.0586,-3.508055451944444,[3.4],,10.1016/j.physb.2016.08.031,Double anions
mp-390,TiO2,True,False,2.0586,-3.508055451944444,[3.26],,10.1016/j.physb.2017.05.027,Double anions
mp-390,TiO2,True,False,2.0586,-3.508055451944444,[3.0],,10.1016/j.physb.2017.05.027,Double anions
mp-390,TiO2,True,False,2.0586,-3.508055451944444,[3.2],,10.1016/j.physb.2017.07.052,Double anions
mp-390,TiO2,True,False,2.0586,-3.508055451944444,[3.2],,10.1016/j.physb.2017.08.006,Double anions
mp-390,TiO2,True,False,2.0586,-3.508055451944444,[3.1],,10.1016/j.physb.2017.08.006,Double anions
mp-390,TiO2,True,False,2.0586,-3.508055451944444,[0.8],,10.1016/j.physb.2017.09.054,Double anions
mp-390,TiO2,True,False,2.0586,-3.508055451944444,[3.2],,10.1016/j.physb.2018.08.043,Double anions
mp-390,TiO2,True,False,2.0586,-3.508055451944444,[3.2],,10.1016/j.physb.2018.12.031,Double anions
mp-390,TiO2,True,False,2.0586,-3.508055451944444,[1.5],,10.1016/j.physb.2019.411670,Double anions
mp-390,TiO2,True,False,2.0586,-3.508055451944444,[3.2],,10.1016/j.physb.2019.411670,Double anions
mp-390,TiO2,True,False,2.0586,-3.508055451944444,[3.2],,10.1016/j.rinp.2017.03.014,Double anions
mp-390,TiO2,True,False,2.0586,-3.508055451944444,[3.4],,10.1016/j.rinp.2017.03.023,Double anions
mp-390,TiO2,True,False,2.0586,-3.508055451944444,[3.1],,10.1016/j.rinp.2018.02.009,Double anions
mp-390,TiO2,True,False,2.0586,-3.508055451944444,[3.06],,10.1016/j.rinp.2018.02.068,Double anions
mp-390,TiO2,True,False,2.0586,-3.508055451944444,[3.4],,10.1016/j.rinp.2018.03.039,Double anions
mp-390,TiO2,True,False,2.0586,-3.508055451944444,[3.2],,10.1016/j.rinp.2018.06.008,Double anions
mp-390,TiO2,True,False,2.0586,-3.508055451944444,[3.67],,10.1016/j.rinp.2018.06.017,Double anions
mp-390,TiO2,True,False,2.0586,-3.508055451944444,[3.62],,10.1016/j.rinp.2018.06.017,Double anions
mp-390,TiO2,True,False,2.0586,-3.508055451944444,[3.04],,10.1016/j.rinp.2018.06.046,Double anions
mp-390,TiO2,True,False,2.0586,-3.508055451944444,[3.06],,10.1016/j.rinp.2018.08.032,Double anions
mp-390,TiO2,True,False,2.0586,-3.508055451944444,[3.3],,10.1016/j.rinp.2019.01.046,Double anions
mp-390,TiO2,True,False,2.0586,-3.508055451944444,[3.2],,10.1016/j.rinp.2019.01.065,Double anions
mp-390,TiO2,True,False,2.0586,-3.508055451944444,[3.2],,10.1016/j.rinp.2019.01.081,Double anions
mp-390,TiO2,True,False,2.0586,-3.508055451944444,[2.37],,10.1016/j.rinp.2019.01.081,Double anions
mp-390,TiO2,True,False,2.0586,-3.508055451944444,[3.37],,10.1016/j.rinp.2019.102209,Double anions
mp-390,TiO2,True,False,2.0586,-3.508055451944444,[2.5],,10.1016/j.rinp.2019.102264,Double anions
mp-390,TiO2,True,False,2.0586,-3.508055451944444,[3.42],,10.1016/j.rinp.2019.102827,Double anions
mp-390,TiO2,True,False,2.0586,-3.508055451944444,[3.02],,10.1016/j.rinp.2020.103093,Double anions
mp-390,TiO2,True,False,2.0586,-3.508055451944444,[2.5],,10.1016/j.tsf.2003.08.054,Double anions
mp-390,TiO2,True,False,2.0586,-3.508055451944444,[4.8],,10.1016/j.tsf.2003.08.054,Double anions
mp-390,TiO2,True,False,2.0586,-3.508055451944444,[4.7],,10.1016/j.tsf.2003.08.054,Double anions
mp-390,TiO2,True,False,2.0586,-3.508055451944444,[3.85],,10.1016/j.tsf.2003.10.114,Double anions
mp-390,TiO2,True,False,2.0586,-3.508055451944444,[3.0],,10.1016/j.tsf.2003.11.061,Double anions
mp-390,TiO2,True,False,2.0586,-3.508055451944444,[1.5],,10.1016/j.tsf.2003.11.061,Double anions
mp-390,TiO2,True,False,2.0586,-3.508055451944444,[3.2],,10.1016/j.tsf.2004.04.004,Double anions
mp-390,TiO2,True,False,2.0586,-3.508055451944444,[3.35],,10.1016/j.tsf.2004.04.004,Double anions
mp-390,TiO2,True,False,2.0586,-3.508055451944444,[3.0],,10.1016/j.tsf.2004.04.004,Double anions
mp-390,TiO2,True,False,2.0586,-3.508055451944444,[3.26],,10.1016/j.tsf.2004.06.189,Double anions
mp-390,TiO2,True,False,2.0586,-3.508055451944444,[3.2],600,10.1016/j.tsf.2004.07.021,Double anions
mp-390,TiO2,True,False,2.0586,-3.508055451944444,[3.2],,10.1016/j.tsf.2004.11.197,Double anions
mp-390,TiO2,True,False,2.0586,-3.508055451944444,[3.0],,10.1016/j.tsf.2005.03.034,Double anions
mp-390,TiO2,True,False,2.0586,-3.508055451944444,[3.0],,10.1016/j.tsf.2005.03.056,Double anions
mp-390,TiO2,True,False,2.0586,-3.508055451944444,[3.25],,10.1016/j.tsf.2005.04.060,Double anions
mp-390,TiO2,True,False,2.0586,-3.508055451944444,[3.22],,10.1016/j.tsf.2005.04.067,Double anions
mp-390,TiO2,True,False,2.0586,-3.508055451944444,[3.2],,10.1016/j.tsf.2005.07.019,Double anions
mp-390,TiO2,True,False,2.0586,-3.508055451944444,[3.2],,10.1016/j.tsf.2005.07.255,Double anions
mp-390,TiO2,True,False,2.0586,-3.508055451944444,[3.2],,10.1016/j.tsf.2005.07.256,Double anions
mp-390,TiO2,True,False,2.0586,-3.508055451944444,[3.2],,10.1016/j.tsf.2005.08.361,Double anions
mp-390,TiO2,True,False,2.0586,-3.508055451944444,[3.2],,10.1016/j.tsf.2005.10.061,Double anions
mp-390,TiO2,True,False,2.0586,-3.508055451944444,[2.09],,10.1016/j.tsf.2005.10.087,Double anions
mp-390,TiO2,True,False,2.0586,-3.508055451944444,[3.4],,10.1016/j.tsf.2005.11.110,Double anions
mp-390,TiO2,True,False,2.0586,-3.508055451944444,[3.23],,10.1016/j.tsf.2005.12.217,Double anions
mp-390,TiO2,True,False,2.0586,-3.508055451944444,[3.36],,10.1016/j.tsf.2006.01.028,Double anions
mp-390,TiO2,True,False,2.0586,-3.508055451944444,[3.09],,10.1016/j.tsf.2006.01.049,Double anions
mp-390,TiO2,True,False,2.0586,-3.508055451944444,[3.2],,10.1016/j.tsf.2006.07.008,Double anions
mp-390,TiO2,True,False,2.0586,-3.508055451944444,[3.2],,10.1016/j.tsf.2006.07.070,Double anions
mp-390,TiO2,True,False,2.0586,-3.508055451944444,[3.22],,10.1016/j.tsf.2006.09.055,Double anions
mp-390,TiO2,True,False,2.0586,-3.508055451944444,[3.5],500,10.1016/j.tsf.2006.10.002,Double anions
mp-390,TiO2,True,False,2.0586,-3.508055451944444,[3.2],,10.1016/j.tsf.2006.10.113,Double anions
mp-390,TiO2,True,False,2.0586,-3.508055451944444,[2.09],,10.1016/j.tsf.2006.11.083,Double anions
mp-390,TiO2,True,False,2.0586,-3.508055451944444,[3.2],,10.1016/j.tsf.2006.11.140,Double anions