mpids,formula,is_stable,theoretical,band_gap,formation_energy_per_atom,Value,Temperature_raw_value,DOI,compound_type
mp-390,TiO2,True,False,2.0586,-3.508055451944444,[3.2],,10.1007/s10853-010-4639-5,Double anions
mp-390,TiO2,True,False,2.0586,-3.508055451944444,[3.2],,10.1007/s10853-010-4751-6,Double anions
mp-390,TiO2,True,False,2.0586,-3.508055451944444,[3.0],,10.1007/s10853-010-4925-2,Double anions
mp-390,TiO2,True,False,2.0586,-3.508055451944444,[3.2],,10.1007/s10853-010-5139-3,Double anions
mp-390,TiO2,True,False,2.0586,-3.508055451944444,[2.16],,10.1007/s10853-010-5139-3,Double anions
mp-390,TiO2,True,False,2.0586,-3.508055451944444,[3.2],,10.1007/s10853-011-6014-6,Double anions
mp-390,TiO2,True,False,2.0586,-3.508055451944444,[3.2],,10.1007/s10853-012-6273-x,Double anions
mp-390,TiO2,True,False,2.0586,-3.508055451944444,[3.2],,10.1007/s10853-013-7396-4,Double anions
mp-390,TiO2,True,False,2.0586,-3.508055451944444,[3.61],,10.1007/s10853-013-7533-0,Double anions
mp-390,TiO2,True,False,2.0586,-3.508055451944444,[3.2],,10.1007/s10853-013-7922-4,Double anions
mp-390,TiO2,True,False,2.0586,-3.508055451944444,[3.0],,10.1007/s10853-014-8453-3,Double anions
mp-390,TiO2,True,False,2.0586,-3.508055451944444,[2.45],,10.1007/s10853-014-8453-3,Double anions
mp-390,TiO2,True,False,2.0586,-3.508055451944444,[3.2],,10.1007/s10853-015-9136-4,Double anions
mp-390,TiO2,True,False,2.0586,-3.508055451944444,[3.26],,10.1007/s10853-015-9518-7,Double anions
mp-390,TiO2,True,False,2.0586,-3.508055451944444,[3.3],,10.1007/s10853-016-0005-6,Double anions
mp-390,TiO2,True,False,2.0586,-3.508055451944444,[3.35],,10.1007/s10853-016-0005-6,Double anions
mp-390,TiO2,True,False,2.0586,-3.508055451944444,[3.11],,10.1007/s10853-016-0074-6,Double anions
mp-390,TiO2,True,False,2.0586,-3.508055451944444,[3.2],,10.1007/s10853-016-9986-4,Double anions
mp-390,TiO2,True,False,2.0586,-3.508055451944444,[3.01],,10.1007/s10853-016-9986-4,Double anions
mp-390,TiO2,True,False,2.0586,-3.508055451944444,[3.2],,10.1007/s10853-017-0911-2,Double anions
mp-390,TiO2,True,False,2.0586,-3.508055451944444,[3.5],,10.1007/s10853-017-1328-7,Double anions
mp-390,TiO2,True,False,2.0586,-3.508055451944444,[3.14],,10.1007/s10853-018-2094-x,Double anions
mp-390,TiO2,True,False,2.0586,-3.508055451944444,[3.2],,10.1007/s10853-018-2429-7,Double anions
mp-390,TiO2,True,False,2.0586,-3.508055451944444,[2.81],,10.1007/s10853-018-3089-3,Double anions
mp-390,TiO2,True,False,2.0586,-3.508055451944444,[3.82],,10.1007/s10853-020-04394-z,Double anions
mp-390,TiO2,True,False,2.0586,-3.508055451944444,[3.2],,10.1007/s10853-020-04770-9,Double anions
mp-390,TiO2,True,False,2.0586,-3.508055451944444,[3.66],200,10.1007/s10854-012-0831-5,Double anions
mp-390,TiO2,True,False,2.0586,-3.508055451944444,[3.06],,10.1007/s10854-014-2194-6,Double anions
mp-390,TiO2,True,False,2.0586,-3.508055451944444,[3.06],,10.1007/s10854-014-2523-9,Double anions
mp-390,TiO2,True,False,2.0586,-3.508055451944444,[1.5],,10.1007/s10854-014-2523-9,Double anions
mp-390,TiO2,True,False,2.0586,-3.508055451944444,[3.2],,10.1007/s10854-014-2574-y,Double anions
mp-390,TiO2,True,False,2.0586,-3.508055451944444,[3.26],,10.1007/s10854-014-2586-7,Double anions
mp-390,TiO2,True,False,2.0586,-3.508055451944444,[3.0],,10.1007/s10854-015-2724-x,Double anions
mp-390,TiO2,True,False,2.0586,-3.508055451944444,[3.2],,10.1007/s10854-015-2724-x,Double anions
mp-390,TiO2,True,False,2.0586,-3.508055451944444,[3.3],,10.1007/s10854-015-2832-7,Double anions
mp-390,TiO2,True,False,2.0586,-3.508055451944444,[3.3],,10.1007/s10854-015-2871-0,Double anions
mp-390,TiO2,True,False,2.0586,-3.508055451944444,[3.23],,10.1007/s10854-015-3852-z,Double anions
mp-390,TiO2,True,False,2.0586,-3.508055451944444,[3.22],,10.1007/s10854-015-4050-8,Double anions
mp-390,TiO2,True,False,2.0586,-3.508055451944444,[3.33],,10.1007/s10854-015-4117-6,Double anions
mp-390,TiO2,True,False,2.0586,-3.508055451944444,[3.2],,10.1007/s10854-016-4414-8,Double anions
mp-390,TiO2,True,False,2.0586,-3.508055451944444,[1.63],,10.1007/s10854-016-4625-z,Double anions
mp-390,TiO2,True,False,2.0586,-3.508055451944444,[3.2],,10.1007/s10854-016-4687-y,Double anions
mp-390,TiO2,True,False,2.0586,-3.508055451944444,[3.2],,10.1007/s10854-016-4720-1,Double anions
mp-390,TiO2,True,False,2.0586,-3.508055451944444,[3.2],,10.1007/s10854-016-4883-9,Double anions
mp-390,TiO2,True,False,2.0586,-3.508055451944444,[3.02],,10.1007/s10854-016-5380-x,Double anions
mp-390,TiO2,True,False,2.0586,-3.508055451944444,[3.2],,10.1007/s10854-016-5618-7,Double anions
mp-390,TiO2,True,False,2.0586,-3.508055451944444,[3.2],,10.1007/s10854-016-5887-1,Double anions
mp-390,TiO2,True,False,2.0586,-3.508055451944444,[3.2],,10.1007/s10854-016-5990-3,Double anions
mp-390,TiO2,True,False,2.0586,-3.508055451944444,[3.21],,10.1007/s10854-016-5990-3,Double anions
mp-390,TiO2,True,False,2.0586,-3.508055451944444,[3.2],,10.1007/s10854-017-6418-4,Double anions
mp-390,TiO2,True,False,2.0586,-3.508055451944444,[3.2],,10.1007/s10854-017-7129-6,Double anions
mp-390,TiO2,True,False,2.0586,-3.508055451944444,[2.96],,10.1007/s10854-017-7592-0,Double anions
mp-390,TiO2,True,False,2.0586,-3.508055451944444,[4.5],,10.1007/s10854-017-7733-5,Double anions
mp-390,TiO2,True,False,2.0586,-3.508055451944444,[3.2],,10.1007/s10854-017-8166-x,Double anions
mp-390,TiO2,True,False,2.0586,-3.508055451944444,[3.77],,10.1007/s10854-017-8210-x,Double anions
mp-390,TiO2,True,False,2.0586,-3.508055451944444,[3.08],,10.1007/s10854-017-8386-0,Double anions
mp-390,TiO2,True,False,2.0586,-3.508055451944444,[3.2],,10.1007/s10854-017-8386-0,Double anions
mp-390,TiO2,True,False,2.0586,-3.508055451944444,[3.2],,10.1007/s10854-017-8437-6,Double anions
mp-390,TiO2,True,False,2.0586,-3.508055451944444,[3.28],,10.1007/s10854-017-8497-7,Double anions
mp-390,TiO2,True,False,2.0586,-3.508055451944444,[3.2],,10.1007/s10854-018-00596-z,Double anions
mp-390,TiO2,True,False,2.0586,-3.508055451944444,[3.17],,10.1007/s10854-018-00596-z,Double anions
mp-390,TiO2,True,False,2.0586,-3.508055451944444,[2.46],,10.1007/s10854-018-8576-4,Double anions
mp-390,TiO2,True,False,2.0586,-3.508055451944444,[3.2],,10.1007/s10854-018-8576-4,Double anions
mp-390,TiO2,True,False,2.0586,-3.508055451944444,[3.2],,10.1007/s10854-018-9069-1,Double anions
mp-390,TiO2,True,False,2.0586,-3.508055451944444,[3.23],,10.1007/s10854-018-9069-1,Double anions
mp-390,TiO2,True,False,2.0586,-3.508055451944444,[3.2],,10.1007/s10854-018-9501-6,Double anions
mp-390,TiO2,True,False,2.0586,-3.508055451944444,[3.02],,10.1007/s10854-018-9693-9,Double anions
mp-390,TiO2,True,False,2.0586,-3.508055451944444,[3.0],,10.1007/s10854-018-9701-0,Double anions
mp-390,TiO2,True,False,2.0586,-3.508055451944444,[3.08],,10.1007/s10854-018-9701-0,Double anions
mp-390,TiO2,True,False,2.0586,-3.508055451944444,[3.0],,10.1007/s10854-018-9717-5,Double anions
mp-390,TiO2,True,False,2.0586,-3.508055451944444,[3.05],,10.1007/s10854-018-9717-5,Double anions
mp-390,TiO2,True,False,2.0586,-3.508055451944444,[3.2],,10.1007/s10854-018-9962-7,Double anions
mp-390,TiO2,True,False,2.0586,-3.508055451944444,[3.58],,10.1007/s10854-019-00787-2,Double anions
mp-390,TiO2,True,False,2.0586,-3.508055451944444,[3.2],,10.1007/s10854-019-00832-0,Double anions
mp-390,TiO2,True,False,2.0586,-3.508055451944444,[3.2],,10.1007/s10854-019-00856-6,Double anions
mp-390,TiO2,True,False,2.0586,-3.508055451944444,[1.7],,10.1007/s10854-019-00856-6,Double anions
mp-390,TiO2,True,False,2.0586,-3.508055451944444,[3.2],,10.1007/s10854-019-01419-5,Double anions
mp-390,TiO2,True,False,2.0586,-3.508055451944444,[3.26],,10.1007/s10854-019-01419-5,Double anions
mp-390,TiO2,True,False,2.0586,-3.508055451944444,[3.02],,10.1007/s10854-019-01453-3,Double anions
mp-390,TiO2,True,False,2.0586,-3.508055451944444,[2.7],,10.1007/s10854-019-01611-7,Double anions
mp-390,TiO2,True,False,2.0586,-3.508055451944444,[3.16],,10.1007/s10854-019-01652-y,Double anions
mp-390,TiO2,True,False,2.0586,-3.508055451944444,[2.96],,10.1007/s10854-019-01652-y,Double anions
mp-390,TiO2,True,False,2.0586,-3.508055451944444,[2.15],,10.1007/s10854-019-02118-x,Double anions
mp-390,TiO2,True,False,2.0586,-3.508055451944444,[3.2],,10.1007/s10854-019-02183-2,Double anions
mp-390,TiO2,True,False,2.0586,-3.508055451944444,[3.8],370,10.1007/s10854-019-02679-x,Double anions
mp-390,TiO2,True,False,2.0586,-3.508055451944444,[3.2],,10.1007/s10854-019-02801-z,Double anions
mp-390,TiO2,True,False,2.0586,-3.508055451944444,[3.2],,10.1007/s10854-020-03153-9,Double anions
mp-390,TiO2,True,False,2.0586,-3.508055451944444,[3.38],,10.1007/s10854-020-03288-9,Double anions
mp-390,TiO2,True,False,2.0586,-3.508055451944444,[3.2],,10.1007/s10854-020-04118-8,Double anions
mp-390,TiO2,True,False,2.0586,-3.508055451944444,[2.24],,10.1007/s10854-020-04606-x,Double anions
mp-390,TiO2,True,False,2.0586,-3.508055451944444,[3.2],,10.1007/s10854-020-04606-x,Double anions
mp-390,TiO2,True,False,2.0586,-3.508055451944444,[2.2],,10.1007/s10854-020-04606-x,Double anions
mp-390,TiO2,True,False,2.0586,-3.508055451944444,[2.92],,10.1007/s10854-020-04606-x,Double anions
mp-390,TiO2,True,False,2.0586,-3.508055451944444,[0.7],,10.1007/s10854-020-04606-x,Double anions
mp-390,TiO2,True,False,2.0586,-3.508055451944444,[3.2],,10.1007/s10856-016-5788-0,Double anions
mp-390,TiO2,True,False,2.0586,-3.508055451944444,[2.78],,10.1007/s10856-016-5788-0,Double anions
mp-390,TiO2,True,False,2.0586,-3.508055451944444,[3.2],,10.1007/s10876-017-1216-y,Double anions
mp-390,TiO2,True,False,2.0586,-3.508055451944444,[2.92],,10.1007/s10876-017-1245-6,Double anions
mp-390,TiO2,True,False,2.0586,-3.508055451944444,[3.26],,10.1007/s10876-018-1437-8,Double anions
mp-390,TiO2,True,False,2.0586,-3.508055451944444,[3.2],,10.1007/s10876-018-1437-8,Double anions
mp-390,TiO2,True,False,2.0586,-3.508055451944444,[3.26],,10.1007/s10895-015-1593-2,Double anions
mp-390,TiO2,True,False,2.0586,-3.508055451944444,[3.2],,10.1007/s10904-016-0478-4,Double anions
mp-390,TiO2,True,False,2.0586,-3.508055451944444,[3.2],,10.1007/s10904-017-0704-8,Double anions
mp-390,TiO2,True,False,2.0586,-3.508055451944444,[3.2],,10.1007/s10904-018-0883-y,Double anions
mp-390,TiO2,True,False,2.0586,-3.508055451944444,[3.18],,10.1007/s10904-018-1031-4,Double anions
mp-390,TiO2,True,False,2.0586,-3.508055451944444,[3.2],,10.1007/s10904-019-01180-6,Double anions
mp-390,TiO2,True,False,2.0586,-3.508055451944444,[3.2],,10.1007/s10904-019-01248-3,Double anions
mp-390,TiO2,True,False,2.0586,-3.508055451944444,[3.2],,10.1007/s10904-020-01676-6,Double anions
mp-390,TiO2,True,False,2.0586,-3.508055451944444,[3.2],,10.1007/s10924-012-0434-5,Double anions
mp-390,TiO2,True,False,2.0586,-3.508055451944444,[3.2],,10.1007/s10934-011-9543-0,Double anions
mp-390,TiO2,True,False,2.0586,-3.508055451944444,[3.2],,10.1007/s10934-012-9662-2,Double anions
mp-390,TiO2,True,False,2.0586,-3.508055451944444,[3.2],,10.1007/s10934-014-9898-0,Double anions
mp-390,TiO2,True,False,2.0586,-3.508055451944444,[3.2],,10.1007/s10948-018-4693-9,Double anions
mp-390,TiO2,True,False,2.0586,-3.508055451944444,[3.2],,10.1007/s10965-015-0657-y,Double anions
mp-390,TiO2,True,False,2.0586,-3.508055451944444,[3.15],,10.1007/s10965-015-0657-y,Double anions
mp-390,TiO2,True,False,2.0586,-3.508055451944444,[3.2],,10.1007/s10967-014-2950-3,Double anions
mp-390,TiO2,True,False,2.0586,-3.508055451944444,[3.2],,10.1007/s10971-007-1620-0,Double anions
mp-390,TiO2,True,False,2.0586,-3.508055451944444,[3.75],,10.1007/s10971-008-1821-1,Double anions
mp-390,TiO2,True,False,2.0586,-3.508055451944444,[3.2],,10.1007/s10971-009-2076-1,Double anions
mp-390,TiO2,True,False,2.0586,-3.508055451944444,[3.2],,10.1007/s10971-011-2495-7,Double anions
mp-390,TiO2,True,False,2.0586,-3.508055451944444,[3.2],,10.1007/s10971-012-2772-0,Double anions
mp-390,TiO2,True,False,2.0586,-3.508055451944444,[3.25],,10.1007/s10971-012-2924-2,Double anions
mp-390,TiO2,True,False,2.0586,-3.508055451944444,[3.2],,10.1007/s10971-013-3038-1,Double anions
mp-390,TiO2,True,False,2.0586,-3.508055451944444,[2.6],,10.1007/s10971-013-3038-1,Double anions
mp-390,TiO2,True,False,2.0586,-3.508055451944444,[3.25],,10.1007/s10971-013-3097-3,Double anions
mp-390,TiO2,True,False,2.0586,-3.508055451944444,[3.2],,10.1007/s10971-013-3221-4,Double anions
mp-390,TiO2,True,False,2.0586,-3.508055451944444,[2.97],,10.1007/s10971-013-3221-4,Double anions
mp-390,TiO2,True,False,2.0586,-3.508055451944444,[3.2],,10.1007/s10971-013-3255-7,Double anions
mp-390,TiO2,True,False,2.0586,-3.508055451944444,[3.2],,10.1007/s10971-014-3328-2,Double anions
mp-390,TiO2,True,False,2.0586,-3.508055451944444,[3.2],,10.1007/s10971-014-3405-6,Double anions
mp-390,TiO2,True,False,2.0586,-3.508055451944444,[3.23],,10.1007/s10971-015-3780-7,Double anions
mp-390,TiO2,True,False,2.0586,-3.508055451944444,[3.2],,10.1007/s10971-015-3925-8,Double anions
mp-390,TiO2,True,False,2.0586,-3.508055451944444,[3.2],,10.1007/s10971-016-4062-8,Double anions
mp-390,TiO2,True,False,2.0586,-3.508055451944444,[3.0],,10.1007/s10971-016-4101-5,Double anions
mp-390,TiO2,True,False,2.0586,-3.508055451944444,[3.2],,10.1007/s10971-016-4167-0,Double anions
mp-390,TiO2,True,False,2.0586,-3.508055451944444,[3.2],,10.1007/s10971-016-4217-7,Double anions
mp-390,TiO2,True,False,2.0586,-3.508055451944444,[3.2],,10.1007/s10971-017-4448-2,Double anions
mp-390,TiO2,True,False,2.0586,-3.508055451944444,[1.7],,10.1007/s10971-018-4681-3,Double anions
mp-390,TiO2,True,False,2.0586,-3.508055451944444,[3.11],,10.1007/s10971-018-4720-0,Double anions
mp-390,TiO2,True,False,2.0586,-3.508055451944444,[2.9],,10.1007/s10971-018-4720-0,Double anions
mp-390,TiO2,True,False,2.0586,-3.508055451944444,[2.93],,10.1007/s10971-018-4746-3,Double anions
mp-390,TiO2,True,False,2.0586,-3.508055451944444,[3.2],,10.1007/s10971-018-4746-3,Double anions
mp-390,TiO2,True,False,2.0586,-3.508055451944444,[3.0],,10.1007/s10971-018-4896-3,Double anions
mp-390,TiO2,True,False,2.0586,-3.508055451944444,[3.2],,10.1007/s10971-019-05108-x,Double anions
mp-390,TiO2,True,False,2.0586,-3.508055451944444,[3.22],,10.1007/s10971-020-05263-6,Double anions
mp-390,TiO2,True,False,2.0586,-3.508055451944444,[2.86],,10.1007/s10973-015-5041-y,Double anions
mp-390,TiO2,True,False,2.0586,-3.508055451944444,[3.2],,10.1007/s11051-009-9672-4,Double anions
mp-390,TiO2,True,False,2.0586,-3.508055451944444,[2.8],,10.1007/s11051-010-0212-z,Double anions
mp-390,TiO2,True,False,2.0586,-3.508055451944444,[3.0],,10.1007/s11051-010-0212-z,Double anions
mp-390,TiO2,True,False,2.0586,-3.508055451944444,[3.2],,10.1007/s11051-012-1157-1,Double anions
mp-390,TiO2,True,False,2.0586,-3.508055451944444,[3.23],,10.1007/s11051-013-1990-x,Double anions
mp-390,TiO2,True,False,2.0586,-3.508055451944444,[3.2],,10.1007/s11051-014-2696-4,Double anions
mp-390,TiO2,True,False,2.0586,-3.508055451944444,[3.27],,10.1007/s11051-014-2696-4,Double anions
mp-390,TiO2,True,False,2.0586,-3.508055451944444,[3.06],,10.1007/s11051-015-3068-4,Double anions
mp-390,TiO2,True,False,2.0586,-3.508055451944444,[3.2],,10.1007/s11051-016-3591-y,Double anions
mp-390,TiO2,True,False,2.0586,-3.508055451944444,[3.0],,10.1007/s11051-017-3799-5,Double anions
mp-390,TiO2,True,False,2.0586,-3.508055451944444,[2.42],,10.1007/s11051-017-3799-5,Double anions
mp-390,TiO2,True,False,2.0586,-3.508055451944444,[3.2],,10.1007/s11051-018-4277-4,Double anions
mp-390,TiO2,True,False,2.0586,-3.508055451944444,[3.2],,10.1007/s11051-019-4500-y,Double anions
mp-390,TiO2,True,False,2.0586,-3.508055451944444,[3.4],500,10.1007/s11051-019-4500-y,Double anions
mp-390,TiO2,True,False,2.0586,-3.508055451944444,[3.2],,10.1007/s11051-019-4692-1,Double anions
mp-390,TiO2,True,False,2.0586,-3.508055451944444,[2.4],,10.1007/s11051-020-05043-x,Double anions
mp-390,TiO2,True,False,2.0586,-3.508055451944444,[3.23],,10.1007/s11082-018-1738-z,Double anions
mp-390,TiO2,True,False,2.0586,-3.508055451944444,[3.2],,10.1007/s11082-020-02315-7,Double anions
mp-390,TiO2,True,False,2.0586,-3.508055451944444,[3.3],,10.1007/s11106-018-0008-8,Double anions
mp-390,TiO2,True,False,2.0586,-3.508055451944444,[3.2],,10.1007/s11144-010-0194-y,Double anions
mp-390,TiO2,True,False,2.0586,-3.508055451944444,[3.2],,10.1007/s11144-011-0293-4,Double anions
mp-390,TiO2,True,False,2.0586,-3.508055451944444,[2.9],,10.1007/s11144-012-0433-5,Double anions
mp-390,TiO2,True,False,2.0586,-3.508055451944444,[2.866],,10.1007/s11144-013-0631-9,Double anions
mp-390,TiO2,True,False,2.0586,-3.508055451944444,[3.2],,10.1007/s11144-014-0721-3,Double anions
mp-390,TiO2,True,False,2.0586,-3.508055451944444,[3.2],,10.1007/s11144-020-01883-9,Double anions
mp-390,TiO2,True,False,2.0586,-3.508055451944444,[3.2],,10.1007/s11164-010-0224-4,Double anions
mp-390,TiO2,True,False,2.0586,-3.508055451944444,[2.75],,10.1007/s11164-010-0224-4,Double anions
mp-390,TiO2,True,False,2.0586,-3.508055451944444,[3.0],,10.1007/s11164-011-0294-y,Double anions
mp-390,TiO2,True,False,2.0586,-3.508055451944444,[3.2],,10.1007/s11164-011-0415-7,Double anions
mp-390,TiO2,True,False,2.0586,-3.508055451944444,[3.2],,10.1007/s11164-011-0456-y,Double anions
mp-390,TiO2,True,False,2.0586,-3.508055451944444,[3.2],,10.1007/s11164-012-0612-z,Double anions
mp-390,TiO2,True,False,2.0586,-3.508055451944444,[3.2],,10.1007/s11164-012-0701-z,Double anions
mp-390,TiO2,True,False,2.0586,-3.508055451944444,[3.2],,10.1007/s11164-012-0902-5,Double anions
mp-390,TiO2,True,False,2.0586,-3.508055451944444,[3.2],,10.1007/s11164-013-1519-z,Double anions
mp-390,TiO2,True,False,2.0586,-3.508055451944444,[2.9],,10.1007/s11164-016-2577-9,Double anions
mp-390,TiO2,True,False,2.0586,-3.508055451944444,[2.56],,10.1007/s11164-016-2577-9,Double anions
mp-390,TiO2,True,False,2.0586,-3.508055451944444,[3.2],,10.1007/s11164-016-2835-x,Double anions
mp-390,TiO2,True,False,2.0586,-3.508055451944444,[3.2],,10.1007/s11164-017-2891-x,Double anions
mp-390,TiO2,True,False,2.0586,-3.508055451944444,[3.08],,10.1007/s11164-017-3209-8,Double anions
mp-390,TiO2,True,False,2.0586,-3.508055451944444,[3.2],,10.1007/s11164-018-03728-6,Double anions
mp-390,TiO2,True,False,2.0586,-3.508055451944444,[3.2],,10.1007/s11164-018-3293-4,Double anions
mp-390,TiO2,True,False,2.0586,-3.508055451944444,[3.2],,10.1007/s11164-018-3371-7,Double anions
mp-390,TiO2,True,False,2.0586,-3.508055451944444,[3.2],,10.1007/s11164-018-3486-x,Double anions
mp-390,TiO2,True,False,2.0586,-3.508055451944444,[3.25],,10.1007/s11164-018-3486-x,Double anions
mp-390,TiO2,True,False,2.0586,-3.508055451944444,[3.0],,10.1007/s11164-018-3553-3,Double anions
mp-390,TiO2,True,False,2.0586,-3.508055451944444,[3.2],,10.1007/s11164-019-04030-9,Double anions
mp-390,TiO2,True,False,2.0586,-3.508055451944444,[3.7],,10.1007/s11164-019-04030-9,Double anions
mp-390,TiO2,True,False,2.0586,-3.508055451944444,[3.0],,10.1007/s11224-012-0058-3,Double anions
mp-390,TiO2,True,False,2.0586,-3.508055451944444,[3.5],,10.1007/s11237-013-9319-5,Double anions
mp-390,TiO2,True,False,2.0586,-3.508055451944444,[2.2],,10.1007/s11244-008-9059-2,Double anions
mp-390,TiO2,True,False,2.0586,-3.508055451944444,[3.2],,10.1007/s11244-008-9059-2,Double anions
mp-390,TiO2,True,False,2.0586,-3.508055451944444,[3.2],,10.1007/s11244-009-9286-1,Double anions
mp-390,TiO2,True,False,2.0586,-3.508055451944444,[3.2],,10.1007/s11244-010-9489-5,Double anions
mp-390,TiO2,True,False,2.0586,-3.508055451944444,[3.3],,10.1007/s11244-013-0124-0,Double anions
mp-390,TiO2,True,False,2.0586,-3.508055451944444,[3.2],,10.1007/s11244-015-0477-7,Double anions
mp-390,TiO2,True,False,2.0586,-3.508055451944444,[3.0],,10.1007/s11244-018-0968-4,Double anions
mp-390,TiO2,True,False,2.0586,-3.508055451944444,[3.12],,10.1007/s11244-018-0968-4,Double anions
mp-390,TiO2,True,False,2.0586,-3.508055451944444,[0.1],,10.1007/s11244-020-01292-1,Double anions
mp-390,TiO2,True,False,2.0586,-3.508055451944444,[2.95],,10.1007/s11244-020-01300-4,Double anions