mpids,formula,is_stable,theoretical,band_gap,formation_energy_per_atom,Value,Temperature_raw_value,DOI,compound_type
mp-2858,ZrO2,True,False,3.5322,-3.813617754999999,[5.56],,10.1007/s10971-016-4205-y,Double anions
mp-2858,ZrO2,True,False,3.5322,-3.813617754999999,[4.76],,10.1007/s11164-017-2894-7,Double anions
mp-2858,ZrO2,True,False,3.5322,-3.813617754999999,[5.2],,10.1007/s42452-020-2491-z,Double anions
mp-2858,ZrO2,True,False,3.5322,-3.813617754999999,[5.69],,10.1007/s42452-020-2491-z,Double anions
mp-2858,ZrO2,True,False,3.5322,-3.813617754999999,[5.8],,10.1038/srep06395,Double anions
mp-2858,ZrO2,True,False,3.5322,-3.813617754999999,[5.09],,10.1038/srep27218,Double anions
mp-2858,ZrO2,True,False,3.5322,-3.813617754999999,[5.68],,10.1007/s00339-012-7232-8,Double anions
mp-2858,ZrO2,True,False,3.5322,-3.813617754999999,[5.74],,10.1007/s00339-016-0086-8,Double anions
mp-2858,ZrO2,True,False,3.5322,-3.813617754999999,[4.473],800,10.1007/s00339-019-2950-9,Double anions
mp-2858,ZrO2,True,False,3.5322,-3.813617754999999,[4.5],,10.1007/s10854-015-3197-7,Double anions
mp-2858,ZrO2,True,False,3.5322,-3.813617754999999,[2.46],,10.1007/s10854-018-9940-0,Double anions
mp-2858,ZrO2,True,False,3.5322,-3.813617754999999,[5.0],,10.1007/s10854-020-04105-z,Double anions
mp-2858,ZrO2,True,False,3.5322,-3.813617754999999,[5.86],,10.1007/s10904-019-01216-x,Double anions
mp-2858,ZrO2,True,False,3.5322,-3.813617754999999,[5.0],,10.1007/s11244-016-0658-z,Double anions
mp-2858,ZrO2,True,False,3.5322,-3.813617754999999,[3.07],,10.1007/s11244-020-01381-1,Double anions
mp-2858,ZrO2,True,False,3.5322,-3.813617754999999,[4.99],,10.1021/jacs.5b03986,Double anions
mp-2858,ZrO2,True,False,3.5322,-3.813617754999999,[0.65],,10.1021/jacs.5b03986,Double anions
mp-2858,ZrO2,True,False,3.5322,-3.813617754999999,[0.56],,10.1021/jacs.5b03986,Double anions
mp-3378,SrHfO3,True,False,4.1704,-3.812364923999999,[3.187],,10.1016/j.physb.2012.03.006,Chalcogenides
mp-3378,SrHfO3,True,False,4.1704,-3.812364923999999,[6.27],,10.1016/j.physb.2013.03.014,Chalcogenides
mp-3378,SrHfO3,True,False,4.1704,-3.812364923999999,[5.78],,10.1039/c6ra06990h,Chalcogenides
mp-3378,SrHfO3,True,False,4.1704,-3.812364923999999,[3.7],,10.1007/s11664-011-1840-5,Chalcogenides
mp-3378,SrHfO3,True,False,4.1704,-3.812364923999999,[3.9],,10.1007/s11664-013-2492-4,Chalcogenides
mp-752425,Dy2Ti2O7,True,True,3.0572,-3.788647775681884,[3.1],,10.1007/s10854-016-5179-9,Double anions
mp-998552,BaHfO3,True,True,3.5394,-3.786714650999999,[6.0],,10.1016/j.physb.2010.06.051,Oxides
mp-998552,BaHfO3,True,True,3.5394,-3.786714650999999,[2.99],,10.1016/j.physb.2010.06.051,Oxides
mp-998552,BaHfO3,True,True,3.5394,-3.786714650999999,[3.0],,10.1039/c4cp05448b,Oxides
mp-17904,Nd2TiO5,True,False,3.313799999999999,-3.7841771885416673,[3.0],,10.1007/s10854-016-5692-x,Double anions
mp-12192,La2Ti2O7,True,False,2.928499999999999,-3.784009469469697,[3.8],,10.1016/j.cej.2011.01.035,Double anions
mp-12192,La2Ti2O7,True,False,2.928499999999999,-3.784009469469697,[2.92],,10.1016/j.cej.2011.01.035,Double anions
mp-12192,La2Ti2O7,True,False,2.928499999999999,-3.784009469469697,[3.9],,10.1016/j.tsf.2013.11.124,Double anions
mp-12192,La2Ti2O7,True,False,2.928499999999999,-3.784009469469697,[3.4],,10.1039/c3ra47037g,Double anions
mp-12192,La2Ti2O7,True,False,2.928499999999999,-3.784009469469697,[3.4],,10.1039/c4ce01089b,Double anions
mp-12192,La2Ti2O7,True,False,2.928499999999999,-3.784009469469697,[2.9],,10.1039/c5cp00157a,Double anions
mp-12192,La2Ti2O7,True,False,2.928499999999999,-3.784009469469697,[3.68],,10.1039/c6ra05166a,Double anions
mp-12192,La2Ti2O7,True,False,2.928499999999999,-3.784009469469697,[3.41],,10.1039/c9cy02230a,Double anions
mp-12192,La2Ti2O7,True,False,2.928499999999999,-3.784009469469697,[3.8],,10.1039/c3cp52269e,Double anions
mp-12192,La2Ti2O7,True,False,2.928499999999999,-3.784009469469697,[2.93],,10.1039/c3cp52269e,Double anions
mp-12192,La2Ti2O7,True,False,2.928499999999999,-3.784009469469697,[1.7],,10.1039/c3cp52269e,Double anions
mp-12192,La2Ti2O7,True,False,2.928499999999999,-3.784009469469697,[0.21],,10.1039/c3cp52269e,Double anions
mp-12192,La2Ti2O7,True,False,2.928499999999999,-3.784009469469697,[3.8],,10.1039/c3cy00179b,Double anions
mp-12192,La2Ti2O7,True,False,2.928499999999999,-3.784009469469697,[3.9],,10.1039/c3cy00179b,Double anions
mp-12192,La2Ti2O7,True,False,2.928499999999999,-3.784009469469697,[3.4],,10.1039/c4ta02401j,Double anions
mp-12192,La2Ti2O7,True,False,2.928499999999999,-3.784009469469697,[3.8],,10.1039/c5cs00769k,Double anions
mp-12192,La2Ti2O7,True,False,2.928499999999999,-3.784009469469697,[3.8],,10.1039/c5ra26685h,Double anions
mp-12192,La2Ti2O7,True,False,2.928499999999999,-3.784009469469697,[3.27],,10.1039/c5ra26685h,Double anions
mp-12192,La2Ti2O7,True,False,2.928499999999999,-3.784009469469697,[3.8],,10.1039/c6dt00862c,Double anions
mp-12192,La2Ti2O7,True,False,2.928499999999999,-3.784009469469697,[3.72],,10.1039/c6dt00862c,Double anions
mp-12192,La2Ti2O7,True,False,2.928499999999999,-3.784009469469697,[3.5],,10.1039/d0ta01310b,Double anions
mp-12192,La2Ti2O7,True,False,2.928499999999999,-3.784009469469697,[2.67],,10.1039/d0ta01310b,Double anions
mp-12192,La2Ti2O7,True,False,2.928499999999999,-3.784009469469697,[3.6],,10.1007/s10854-017-7080-6,Double anions
mp-12192,La2Ti2O7,True,False,2.928499999999999,-3.784009469469697,[3.2],,10.1007/s10854-016-4837-2,Double anions
mp-12192,La2Ti2O7,True,False,2.928499999999999,-3.784009469469697,[2.93],,10.1007/s10854-019-00877-1,Double anions
mp-4056,CaSc2O4,True,False,3.457999999999999,-3.783688220714285,[4.45],,10.1039/c9qi00443b,Double anions
mp-1045,Nd2O3,True,False,3.708,-3.781547341499998,[5.8],,10.1007/s00339-013-7611-9,Double anions
mp-1045,Nd2O3,True,False,3.708,-3.781547341499998,[4.7],,10.1007/s10971-012-2890-8,Double anions
mp-1045,Nd2O3,True,False,3.708,-3.781547341499998,[3.05],,10.1007/s10854-020-02907-9,Double anions
mp-1045,Nd2O3,True,False,3.708,-3.781547341499998,[0.97],,10.1021/jacs.5b03986,Double anions
mp-3520,Y2SiO5,True,False,4.7661,-3.781171346562509,[7.4],,10.1016/j.optmat.2017.01.044,Double anions
mp-3520,Y2SiO5,True,False,4.7661,-3.781171346562509,[7.4],,10.1016/j.physb.2009.09.015,Double anions
mp-3520,Y2SiO5,True,False,4.7661,-3.781171346562509,[4.87],,10.1039/c8nj01768a,Double anions
mp-1189614,BaThO3,True,True,4.047,-3.7750959409999982,[5.7],,10.1016/j.optmat.2010.10.052,Oxides
mp-1189614,BaThO3,True,True,4.047,-3.7750959409999982,[0.3],,10.1016/j.jallcom.2018.08.134,Oxides
mp-5373,Y2Ti2O7,False,False,2.7208,-3.74501564060606,[1.98],,10.1016/j.physb.2006.11.047,Double anions
mp-5373,Y2Ti2O7,False,False,2.7208,-3.74501564060606,[3.7],,10.1039/c2cp44195k,Double anions
mp-5373,Y2Ti2O7,False,False,2.7208,-3.74501564060606,[2.75],,10.1039/c2ra21099a,Double anions
mp-5373,Y2Ti2O7,False,False,2.7208,-3.74501564060606,[0.4],,10.1007/s11664-017-5450-8,Double anions
mp-5373,Y2Ti2O7,False,False,2.7208,-3.74501564060606,[3.2],,10.1007/s41779-019-00329-3,Double anions
mp-770771,SrSc2O4,True,True,3.6335,-3.737810427499999,[4.6],,10.1039/c9qi00443b,Double anions
mp-16705,Pr2O3,True,False,3.8059,-3.729270369416666,[3.9],,10.1016/j.tsf.2007.08.097,Double anions
mp-16705,Pr2O3,True,False,3.8059,-3.729270369416666,[3.9],,10.1039/c6tc02863b,Double anions
mp-16705,Pr2O3,True,False,3.8059,-3.729270369416666,[0.84],,10.1021/jacs.5b03986,Double anions
mp-3335,Sm2Ti2O7,False,False,2.7306,-3.725298062424243,[3.6],,10.1039/c4cp00246f,Double anions
mp-3335,Sm2Ti2O7,False,False,2.7306,-3.725298062424243,[3.6],,10.1039/c3cy20853b,Double anions
mp-1080060,LaAlO3,True,True,3.7121,-3.722466562999999,[4.99],,10.1016/j.matpr.2017.09.103,Oxides
mp-1080060,LaAlO3,True,True,3.7121,-3.722466562999999,[5.6],,10.1016/j.physb.2006.11.004,Oxides
mp-1080060,LaAlO3,True,True,3.7121,-3.722466562999999,[5.0],2100,10.1016/j.physb.2008.07.026,Oxides
mp-1080060,LaAlO3,True,True,3.7121,-3.722466562999999,[5.0],,10.1016/j.tsf.2009.08.013,Oxides
mp-1080060,LaAlO3,True,True,3.7121,-3.722466562999999,[6.0],,10.1016/j.tsf.2013.02.068,Oxides
mp-1080060,LaAlO3,True,True,3.7121,-3.722466562999999,[3.51],,10.1016/j.matlet.2011.11.001,Oxides
mp-1080060,LaAlO3,True,True,3.7121,-3.722466562999999,[4.0],,10.1039/c5ra23244a,Oxides
mp-1080060,LaAlO3,True,True,3.7121,-3.722466562999999,[3.2],,10.1039/d0tc02811h,Oxides
mp-1080060,LaAlO3,True,True,3.7121,-3.722466562999999,[4.03],,10.1039/c2jm15150b,Oxides
mp-1080060,LaAlO3,True,True,3.7121,-3.722466562999999,[2.0],,10.1039/c9cp05737d,Oxides
mp-1080060,LaAlO3,True,True,3.7121,-3.722466562999999,[3.2],,10.1039/c9cp05737d,Oxides
mp-1080060,LaAlO3,True,True,3.7121,-3.722466562999999,[2.87],,10.1039/c6tc05627j,Oxides
mp-1080060,LaAlO3,True,True,3.7121,-3.722466562999999,[5.0],,10.1039/c1jm00068c,Oxides
mp-1080060,LaAlO3,True,True,3.7121,-3.722466562999999,[6.2],,10.1039/b507004j,Oxides
mp-1080060,LaAlO3,True,True,3.7121,-3.722466562999999,[6.2],,10.1039/b609129f,Oxides
mp-1080060,LaAlO3,True,True,3.7121,-3.722466562999999,[5.0],"2,100",10.1007/s11164-013-1126-z,Oxides
mp-1080060,LaAlO3,True,True,3.7121,-3.722466562999999,[2.88],820,10.1007/s10854-017-7067-3,Oxides
mp-1080060,LaAlO3,True,True,3.7121,-3.722466562999999,[5.6],,10.1038/srep36859,Oxides
mp-1080060,LaAlO3,True,True,3.7121,-3.722466562999999,[5.0],,10.1007/s10854-017-8000-5,Oxides
mp-1080060,LaAlO3,True,True,3.7121,-3.722466562999999,[4.9],,10.1007/s42247-020-00097-y,Oxides
mp-1080060,LaAlO3,True,True,3.7121,-3.722466562999999,[5.5],,10.1038/s41467-020-16207-7,Oxides
mp-1080060,LaAlO3,True,True,3.7121,-3.722466562999999,[5.6],,10.1038/srep28313,Oxides
mp-1080060,LaAlO3,True,True,3.7121,-3.722466562999999,[1.8],,10.1007/s10854-006-9072-9,Oxides
mp-1080060,LaAlO3,True,True,3.7121,-3.722466562999999,[5.6],,10.1038/s41467-019-10664-5,Oxides
mp-1080060,LaAlO3,True,True,3.7121,-3.722466562999999,[6.2],,10.1007/s10854-016-6111-z,Oxides
mp-1080060,LaAlO3,True,True,3.7121,-3.722466562999999,[3.2],,10.1038/ncomms2804,Oxides
mp-1080060,LaAlO3,True,True,3.7121,-3.722466562999999,[5.5],,10.1186/s11671-020-03390-1,Oxides
mp-1228245,BaLa4Ti4O15,False,True,2.8881,-3.71649078763889,[3.9],,10.1039/c6cp07973c,Oxides
mp-15201,Pr2Ti2O7,True,False,2.972899999999999,-3.714439192499989,[2.7],,10.1039/c5tc00242g,Double anions
mp-5377,YTaO4,True,False,4.031499999999999,-3.707996333722221,[5.1],,10.1016/j.optmat.2018.05.019,Oxides
mp-686465,Gd2Ti2O7,False,True,2.408899999999999,-3.700774554924241,[3.2],,10.1039/c5ra11682a,Double anions
mp-686465,Gd2Ti2O7,False,True,2.408899999999999,-3.700774554924241,[3.2],,10.1039/c1dt11517k,Double anions
mp-17275,SrY2O4,False,False,3.7035,-3.698782460357143,[5.04],,10.1039/d0ra03094e,Double anions
mp-4875,GdTaO4,True,False,3.3217,-3.6930033878888873,[0.8],∼16,10.1016/j.optmat.2018.01.003,Oxides
mp-756214,YAlO3,False,True,4.9586000000000015,-3.685266473999999,[8.0],,10.1016/j.optmat.2017.02.029,Oxides
mp-756214,YAlO3,False,True,4.9586000000000015,-3.685266473999999,[7.26],,10.1016/j.optmat.2018.08.039,Oxides
mp-756214,YAlO3,False,True,4.9586000000000015,-3.685266473999999,[7.1],,10.1016/j.optmat.2018.08.039,Oxides
mp-756214,YAlO3,False,True,4.9586000000000015,-3.685266473999999,[8.0],,10.1016/j.optmat.2019.03.047,Oxides
mp-756214,YAlO3,False,True,4.9586000000000015,-3.685266473999999,[1.8],,10.1016/j.physb.2004.09.090,Oxides
mp-756214,YAlO3,False,True,4.9586000000000015,-3.685266473999999,[8.0],,10.1016/j.tsf.2016.03.020,Oxides
mp-756214,YAlO3,False,True,4.9586000000000015,-3.685266473999999,[0.05],,10.1038/ncomms1602,Oxides
mp-6457,La2MgTiO6,False,False,3.064,-3.683122239833333,[3.98],,10.1039/c7tc02661g,Double anions
mp-6457,La2MgTiO6,False,False,3.064,-3.683122239833333,[5.34],,10.1007/s00339-019-3147-y,Double anions
mp-3050,Y3Al5O12,True,False,4.5762,-3.675374461249997,[6.5],,10.1016/j.optmat.2009.12.001,Double anions
mp-3050,Y3Al5O12,True,False,4.5762,-3.675374461249997,[7.7],,10.1039/c5tc00546a,Double anions
mp-3050,Y3Al5O12,True,False,4.5762,-3.675374461249997,[7.1],,10.1007/s10853-017-1427-5,Double anions
mp-3050,Y3Al5O12,True,False,4.5762,-3.675374461249997,[6.6],,10.1007/s10854-018-00598-x,Double anions
mp-581644,Y2Si2O7,True,False,4.7121,-3.671023028712122,[5.89],,10.1016/j.optmat.2015.08.027,Double anions
mp-4571,CaZrO3,True,False,3.8263,-3.670175069499999,[3.3],,10.1016/j.physb.2008.01.025,Oxides
mp-4387,SrZrO3,True,False,3.6122,-3.661658828500002,[2.7],,10.1016/j.rinp.2018.12.080,Chalcogenides
mp-4387,SrZrO3,True,False,3.6122,-3.661658828500002,[5.3],,10.1016/j.tsf.2003.08.013,Chalcogenides
mp-4387,SrZrO3,True,False,3.6122,-3.661658828500002,[4.4],,10.1016/j.ceramint.2018.09.305,Chalcogenides
mp-4387,SrZrO3,True,False,3.6122,-3.661658828500002,[5.6],,10.1016/j.ijhydene.2013.11.055,Chalcogenides
mp-4387,SrZrO3,True,False,3.6122,-3.661658828500002,[3.309],,10.1016/j.ijleo.2019.05.099,Chalcogenides
mp-4387,SrZrO3,True,False,3.6122,-3.661658828500002,[5.6],,10.1039/c4ra11135d,Chalcogenides
mp-4387,SrZrO3,True,False,3.6122,-3.661658828500002,[5.4],,10.1039/c4ra11135d,Chalcogenides
mp-4387,SrZrO3,True,False,3.6122,-3.661658828500002,[4.1],1100,10.1007/s12598-019-01326-y,Chalcogenides
mp-4387,SrZrO3,True,False,3.6122,-3.661658828500002,[5.54],,10.1007/s10973-015-4804-9,Chalcogenides
mp-3466,PrAlO3,True,False,4.1325,-3.655848326333328,[3.8],,10.1039/c6ra08875a,Oxides
mp-1019544,BaZrO3,True,False,3.1163,-3.639240691,[5.0],,10.1016/j.tsf.2007.09.041,Oxides
mp-1019544,BaZrO3,True,False,3.1163,-3.639240691,[5.0],,10.1016/j.tsf.2011.10.195,Oxides
mp-1019544,BaZrO3,True,False,3.1163,-3.639240691,[3.15],,10.1016/j.cattod.2014.07.010,Oxides
mp-1019544,BaZrO3,True,False,3.1163,-3.639240691,[3.55],300,10.1016/j.jallcom.2014.07.007,Oxides
mp-1019544,BaZrO3,True,False,3.1163,-3.639240691,[5.33],,10.1039/c6cp00830e,Oxides
mp-1019544,BaZrO3,True,False,3.1163,-3.639240691,[4.8],,10.1039/c4cy01201a,Oxides
mp-1019544,BaZrO3,True,False,3.1163,-3.639240691,[3.2],,10.1039/c4cy01201a,Oxides
mp-1019544,BaZrO3,True,False,3.1163,-3.639240691,[4.8],,10.1039/c8ce01665h,Oxides
mp-1019544,BaZrO3,True,False,3.1163,-3.639240691,[5.0],,10.1039/c4ta02558j,Oxides
mp-1019544,BaZrO3,True,False,3.1163,-3.639240691,[3.9],,10.1039/c9dt01485c,Oxides
mp-1019544,BaZrO3,True,False,3.1163,-3.639240691,[5.3],,10.1039/b816856c,Oxides
mp-1019544,BaZrO3,True,False,3.1163,-3.639240691,[4.8],,10.1039/c4cc00101j,Oxides
mp-1019544,BaZrO3,True,False,3.1163,-3.639240691,[5.3],,10.1007/s10853-017-1773-3,Oxides
mp-1019544,BaZrO3,True,False,3.1163,-3.639240691,[5.3],,10.1007/s10854-018-00619-9,Oxides
mp-1019544,BaZrO3,True,False,3.1163,-3.639240691,[3.75],,10.1007/s10973-014-4033-7,Oxides
mp-1019544,BaZrO3,True,False,3.1163,-3.639240691,[3.88],,10.1007/s10973-014-4033-7,Oxides
mp-560163,Ca4Si2O7F2,True,False,4.8233,-3.630295984333333,[5.0],,10.1016/j.optmat.2011.06.012,Double anions
mp-560163,Ca4Si2O7F2,True,False,4.8233,-3.630295984333333,[4.6],,10.1021/acs.chemmater.6b05468,Double anions
mp-22428,SrCeO3,False,False,2.2817,-3.614131642999999,[3.01],,10.1007/s10854-019-01963-0,Chalcogenides
mp-753891,ZrTiO4,False,True,2.8427,-3.613995620555555,[2.8],,10.1039/c0jm00675k,Oxides
mp-753891,ZrTiO4,False,True,2.8427,-3.613995620555555,[3.6],,10.1039/d0sc02876b,Oxides
mp-753891,ZrTiO4,False,True,2.8427,-3.613995620555555,[3.6],,10.1039/c7ta03047a,Oxides
mp-753891,ZrTiO4,False,True,2.8427,-3.613995620555555,[3.3],,10.1007/s11356-017-1023-x,Oxides
mp-753891,ZrTiO4,False,True,2.8427,-3.613995620555555,[3.4],,10.1007/s10570-019-02521-x,Oxides
mp-375,UO3,True,False,1.634999999999999,-3.612179313749998,[4.0],,10.1038/s41598-018-32903-3,Oxides
mp-1205803,Ba2ErTaO6,True,True,3.393399999999999,-3.600573126733332,[2.5],,10.1039/c9ra01797f,Double anions
mp-1205823,Ba2ScTaO6,True,True,3.0173,-3.593178310233333,[4.19],,10.1016/j.jssc.2007.12.007,Double anions
mp-3187,BaCeO3,True,False,2.2207,-3.589836753000001,[3.0],,10.1016/j.ijhydene.2018.07.007,Oxides
mp-3187,BaCeO3,True,False,2.2207,-3.589836753000001,[1.8],,10.1039/c3ta15379g,Oxides
mp-3187,BaCeO3,True,False,2.2207,-3.589836753000001,[2.17],,10.1007/s11664-014-3378-9,Oxides
mp-3187,BaCeO3,True,False,2.2207,-3.589836753000001,[3.39],,10.1007/s00339-019-2497-9,Oxides
mp-644492,LuNbO4,True,False,3.3974,-3.582251921944446,[4.2],,10.1039/c7tc03260a,Oxides
mp-644492,LuNbO4,True,False,3.3974,-3.582251921944446,[4.214],,10.1007/s10854-018-9288-5,Oxides
mp-1216625,TiOF2,False,True,2.054999999999999,-3.569921060833334,[3.2],,10.1039/c1cc14453g,Double anions
mp-1216625,TiOF2,False,True,2.054999999999999,-3.569921060833334,[3.09],,10.1039/c9ra07999h,Double anions
mp-12385,Ba2YTaO6,True,False,3.463899999999999,-3.5674410347333323,[3.5],,10.1016/j.physb.2014.07.036,Double anions
mp-556850,BaMnF4,False,False,2.3195,-3.560061476321838,[1.0],,10.1039/c5cp05864c,Halides
mp-4820,ZrSiO4,True,False,4.1495,-3.55875977333333,[4.0],,10.1039/c8pp00315g,Chalcogenides
mp-4019,CaTiO3,True,False,2.3053,-3.556087157166666,[3.37],,10.1016/j.cej.2020.125721,Oxides
mp-4019,CaTiO3,True,False,2.3053,-3.556087157166666,[3.7],,10.1016/j.optmat.2012.05.012,Oxides
mp-4019,CaTiO3,True,False,2.3053,-3.556087157166666,[3.6],,10.1016/j.optmat.2017.11.031,Oxides
mp-4019,CaTiO3,True,False,2.3053,-3.556087157166666,[2.778],,10.1016/j.physb.2012.05.025,Oxides
mp-4019,CaTiO3,True,False,2.3053,-3.556087157166666,[1.9],,10.1016/j.physb.2012.06.022,Oxides
mp-4019,CaTiO3,True,False,2.3053,-3.556087157166666,[3.57],,10.1016/j.jssc.2007.03.017,Oxides
mp-4019,CaTiO3,True,False,2.3053,-3.556087157166666,[3.6],,10.1039/c3tc31995d,Oxides
mp-4019,CaTiO3,True,False,2.3053,-3.556087157166666,[3.65],,10.1039/c6ra06435c,Oxides
mp-4019,CaTiO3,True,False,2.3053,-3.556087157166666,[3.5],,10.1039/c7qm00362e,Oxides
mp-4019,CaTiO3,True,False,2.3053,-3.556087157166666,[0.3],,10.1039/c7ra01650f,Oxides
mp-4019,CaTiO3,True,False,2.3053,-3.556087157166666,[3.5],,10.1039/c8cy02142b,Oxides
mp-4019,CaTiO3,True,False,2.3053,-3.556087157166666,[3.53],,10.1039/c8cy02142b,Oxides
mp-4019,CaTiO3,True,False,2.3053,-3.556087157166666,[3.5],,10.1039/c2jm32718j,Oxides
mp-4019,CaTiO3,True,False,2.3053,-3.556087157166666,[3.5],,10.1039/c5ra26250j,Oxides
mp-4019,CaTiO3,True,False,2.3053,-3.556087157166666,[3.3],,10.1039/c5ra26250j,Oxides
mp-4019,CaTiO3,True,False,2.3053,-3.556087157166666,[3.17],,10.1039/c3ce27040h,Oxides
mp-4019,CaTiO3,True,False,2.3053,-3.556087157166666,[3.51],,10.1039/c9se00526a,Oxides
mp-4019,CaTiO3,True,False,2.3053,-3.556087157166666,[3.46],,10.1039/c7cp01953j,Oxides
mp-4019,CaTiO3,True,False,2.3053,-3.556087157166666,[1.68],,10.1039/c7cp01953j,Oxides
mp-4019,CaTiO3,True,False,2.3053,-3.556087157166666,[3.35],,10.1007/s10854-016-5976-1,Oxides
mp-4019,CaTiO3,True,False,2.3053,-3.556087157166666,[3.2],,10.1007/s10971-016-4261-3,Oxides
mp-4019,CaTiO3,True,False,2.3053,-3.556087157166666,[3.68],,10.1007/s00339-018-1665-7,Oxides
mp-4019,CaTiO3,True,False,2.3053,-3.556087157166666,[3.5],,10.1007/s10562-006-9004-6,Oxides
mp-4019,CaTiO3,True,False,2.3053,-3.556087157166666,[0.5],,10.1007/s10854-018-0411-4,Oxides
mp-4019,CaTiO3,True,False,2.3053,-3.556087157166666,[3.5],,10.1007/s11663-013-9973-y,Oxides
mp-4019,CaTiO3,True,False,2.3053,-3.556087157166666,[3.6],,10.1007/s11270-020-04471-8,Oxides
mp-4019,CaTiO3,True,False,2.3053,-3.556087157166666,[3.44],,10.1007/s11356-016-7590-4,Oxides
mp-4019,CaTiO3,True,False,2.3053,-3.556087157166666,[3.5],,10.1007/s42452-020-03662-6,Oxides
mp-4019,CaTiO3,True,False,2.3053,-3.556087157166666,[2.78],,10.1007/s10854-018-9861-y,Oxides
mp-4019,CaTiO3,True,False,2.3053,-3.556087157166666,[4.64],,10.1007/s10854-020-03241-w,Oxides
mp-1227119,CaYAl3O7,False,True,4.276199999999999,-3.551931291666666,[7.0],,10.1039/c3dt51958a,Oxides
mp-4651,SrTiO3,True,True,1.848799999999999,-3.551662291666667,[3.2],,10.1016/j.cej.2013.03.030,Chalcogenides
mp-4651,SrTiO3,True,True,1.848799999999999,-3.551662291666667,[3.2],,10.1016/j.cej.2013.03.076,Chalcogenides
mp-4651,SrTiO3,True,True,1.848799999999999,-3.551662291666667,[3.2],,10.1016/j.cej.2019.123116,Chalcogenides