mpids,formula,is_stable,theoretical,band_gap,formation_energy_per_atom,Value,Temperature_raw_value,DOI,compound_type
mp-1265,MgO,True,False,4.4292,-3.03830917,[4.9],,10.1038/nmat2289,Oxides
mp-1265,MgO,True,False,4.4292,-3.03830917,[7.8],,10.1038/s41598-017-07699-3,Oxides
mp-1265,MgO,True,False,4.4292,-3.03830917,[7.8],,10.1038/srep28131,Oxides
mp-1265,MgO,True,False,4.4292,-3.03830917,[3.9],,10.1007/s10854-011-0540-5,Oxides
mp-1265,MgO,True,False,4.4292,-3.03830917,[7.8],,10.1007/s10854-015-2855-0,Oxides
mp-1265,MgO,True,False,4.4292,-3.03830917,[5.1],,10.1007/s10854-020-04046-7,Oxides
mp-1265,MgO,True,False,4.4292,-3.03830917,[7.0],,10.1007/s10854-020-04046-7,Oxides
mp-1265,MgO,True,False,4.4292,-3.03830917,[5.0],,10.1007/s10854-020-04046-7,Oxides
mp-1265,MgO,True,False,4.4292,-3.03830917,[4.52],,10.1007/s10904-016-0411-x,Oxides
mp-1265,MgO,True,False,4.4292,-3.03830917,[4.514],,10.1007/s10904-016-0411-x,Oxides
mp-1265,MgO,True,False,4.4292,-3.03830917,[7.0],,10.1007/s10904-016-0411-x,Oxides
mp-1265,MgO,True,False,4.4292,-3.03830917,[4.51],,10.1007/s10904-016-0411-x,Oxides
mp-1265,MgO,True,False,4.4292,-3.03830917,[7.8],,10.1007/s11661-016-3682-5,Oxides
mp-1265,MgO,True,False,4.4292,-3.03830917,[7.7],,10.1134/S106378342002002X,Oxides
mp-1265,MgO,True,False,4.4292,-3.03830917,[7.8],,10.1007/s00214-016-1942-5,Oxides
mp-1265,MgO,True,False,4.4292,-3.03830917,[4.7],,10.1007/s00340-020-7393-7,Oxides
mp-1265,MgO,True,False,4.4292,-3.03830917,[7.3],,10.1007/s10832-013-9858-0,Oxides
mp-1265,MgO,True,False,4.4292,-3.03830917,[7.8],,10.1007/s10853-017-1028-3,Oxides
mp-1265,MgO,True,False,4.4292,-3.03830917,[7.8],,10.1007/s10853-017-1231-2,Oxides
mp-1265,MgO,True,False,4.4292,-3.03830917,[7.8],,10.1007/s10854-012-0683-z,Oxides
mp-1265,MgO,True,False,4.4292,-3.03830917,[7.0],,10.1007/s10854-017-7955-6,Oxides
mp-1265,MgO,True,False,4.4292,-3.03830917,[4.2],,10.1007/s10904-019-01369-9,Oxides
mp-1265,MgO,True,False,4.4292,-3.03830917,[7.8],,10.1007/s10948-013-2174-8,Oxides
mp-1265,MgO,True,False,4.4292,-3.03830917,[7.7],,10.1007/s11051-010-9978-2,Oxides
mp-1265,MgO,True,False,4.4292,-3.03830917,[7.8],,10.1007/s11665-009-9490-y,Oxides
mp-1265,MgO,True,False,4.4292,-3.03830917,[7.8],,10.1007/s42341-019-00111-z,Oxides
mp-1265,MgO,True,False,4.4292,-3.03830917,[2.48],,10.1038/s41598-020-59325-4,Oxides
mp-1265,MgO,True,False,4.4292,-3.03830917,[7.8],,10.1038/srep06505,Oxides
mp-1265,MgO,True,False,4.4292,-3.03830917,[4.0],,10.1038/srep08537,Oxides
mp-1265,MgO,True,False,4.4292,-3.03830917,[3.8],,10.1038/srep08537,Oxides
mp-1265,MgO,True,False,4.4292,-3.03830917,[7.8],,10.1134/S1027451020070150,Oxides
mp-1265,MgO,True,False,4.4292,-3.03830917,[7.8],,10.1134/S1063784220020073,Oxides
mp-1265,MgO,True,False,4.4292,-3.03830917,[7.8],,10.1186/s41476-017-0042-z,Oxides
mp-1265,MgO,True,False,4.4292,-3.03830917,[2.5],,10.1186/s41476-017-0042-z,Oxides
mp-1265,MgO,True,False,4.4292,-3.03830917,[7.8],,10.1007/s00339-015-9252-7,Oxides
mp-1265,MgO,True,False,4.4292,-3.03830917,[5.84],,10.1007/s10098-018-1547-x,Oxides
mp-1265,MgO,True,False,4.4292,-3.03830917,[7.8],,10.1007/s10832-008-9485-3,Oxides
mp-1265,MgO,True,False,4.4292,-3.03830917,[7.7],,10.1007/s10854-012-0956-6,Oxides
mp-1265,MgO,True,False,4.4292,-3.03830917,[3.7],,10.1007/s10854-014-2098-5,Oxides
mp-1265,MgO,True,False,4.4292,-3.03830917,[3.89],,10.1007/s10854-014-2098-5,Oxides
mp-1265,MgO,True,False,4.4292,-3.03830917,[3.92],,10.1007/s10854-014-2098-5,Oxides
mp-1265,MgO,True,False,4.4292,-3.03830917,[5.5],,10.1007/s10854-014-2136-3,Oxides
mp-1265,MgO,True,False,4.4292,-3.03830917,[7.8],,10.1007/s10854-014-2136-3,Oxides
mp-1265,MgO,True,False,4.4292,-3.03830917,[3.27],,10.1007/s10854-014-2136-3,Oxides
mp-1265,MgO,True,False,4.4292,-3.03830917,[1.38],,10.1007/s10854-016-6299-y,Oxides
mp-1265,MgO,True,False,4.4292,-3.03830917,[7.2],,10.1007/s10854-018-9968-1,Oxides
mp-1265,MgO,True,False,4.4292,-3.03830917,[7.8],,10.1007/s10854-019-02419-1,Oxides
mp-1265,MgO,True,False,4.4292,-3.03830917,[4.2],,10.1007/s10854-019-02823-7,Oxides
mp-1265,MgO,True,False,4.4292,-3.03830917,[7.2],,10.1007/s10971-015-3734-0,Oxides
mp-1265,MgO,True,False,4.4292,-3.03830917,[3.6],,10.1007/s10971-018-4613-2,Oxides
mp-1265,MgO,True,False,4.4292,-3.03830917,[7.8],,10.1007/s12043-016-1341-4,Oxides
mp-1265,MgO,True,False,4.4292,-3.03830917,[7.77],,10.1021/jacs.5b03986,Oxides
mp-1265,MgO,True,False,4.4292,-3.03830917,[7.69],,10.1021/jacs.5b03986,Oxides
mp-1265,MgO,True,False,4.4292,-3.03830917,[7.4],,10.1021/jacs.5b03986,Oxides
mp-1265,MgO,True,False,4.4292,-3.03830917,[7.77],,10.1016/S0925-8388(99)00422-3,Oxides
mp-1179114,ScO2,False,False,0.5864,-3.035004163333332,[1.3],,10.1039/c7ta10233j,Double anions
mp-581967,Nb2O5,True,False,1.7731,-3.034205274693879,[1.76],,10.1016/j.cej.2016.11.135,Double anions
mp-581967,Nb2O5,True,False,1.7731,-3.034205274693879,[3.4],,10.1016/j.cej.2020.126199,Double anions
mp-581967,Nb2O5,True,False,1.7731,-3.034205274693879,[3.4],,10.1016/j.jece.2013.07.029,Double anions
mp-581967,Nb2O5,True,False,1.7731,-3.034205274693879,[3.5],,10.1016/j.matpr.2019.06.505,Double anions
mp-581967,Nb2O5,True,False,1.7731,-3.034205274693879,[3.4],,10.1016/j.matpr.2020.05.818,Double anions
mp-581967,Nb2O5,True,False,1.7731,-3.034205274693879,[3.37],,10.1016/j.optmat.2010.01.031,Double anions
mp-581967,Nb2O5,True,False,1.7731,-3.034205274693879,[3.4],,10.1016/j.optmat.2012.09.029,Double anions
mp-581967,Nb2O5,True,False,1.7731,-3.034205274693879,[3.4],,10.1016/j.physb.2017.06.088,Double anions
mp-581967,Nb2O5,True,False,1.7731,-3.034205274693879,[3.56],,10.1016/j.rinp.2018.02.060,Double anions
mp-581967,Nb2O5,True,False,1.7731,-3.034205274693879,[3.7],,10.1016/j.tsf.2007.12.112,Double anions
mp-581967,Nb2O5,True,False,1.7731,-3.034205274693879,[3.2],,10.1016/j.tsf.2010.07.114,Double anions
mp-581967,Nb2O5,True,False,1.7731,-3.034205274693879,[3.4],,10.1016/j.tsf.2010.12.021,Double anions
mp-581967,Nb2O5,True,False,1.7731,-3.034205274693879,[3.65],,10.1016/j.tsf.2010.12.036,Double anions
mp-581967,Nb2O5,True,False,1.7731,-3.034205274693879,[3.4],,10.1016/j.tsf.2011.10.199,Double anions
mp-581967,Nb2O5,True,False,1.7731,-3.034205274693879,[3.46],,10.1016/j.tsf.2015.04.075,Double anions
mp-581967,Nb2O5,True,False,1.7731,-3.034205274693879,[3.98],,10.1016/j.matchemphys.2008.07.117,Double anions
mp-581967,Nb2O5,True,False,1.7731,-3.034205274693879,[3.4],,10.1039/b210055j,Double anions
mp-581967,Nb2O5,True,False,1.7731,-3.034205274693879,[2.35],,10.1039/c4cp02834a,Double anions
mp-581967,Nb2O5,True,False,1.7731,-3.034205274693879,[3.4],,10.1039/c4nr00505h,Double anions
mp-581967,Nb2O5,True,False,1.7731,-3.034205274693879,[3.3],,10.1039/c4tc01581a,Double anions
mp-581967,Nb2O5,True,False,1.7731,-3.034205274693879,[3.15],,10.1039/c5dt04578a,Double anions
mp-581967,Nb2O5,True,False,1.7731,-3.034205274693879,[3.6],,10.1039/c6ta00192k,Double anions
mp-581967,Nb2O5,True,False,1.7731,-3.034205274693879,[3.4],,10.1039/c9cy01170f,Double anions
mp-581967,Nb2O5,True,False,1.7731,-3.034205274693879,[2.58],,10.1039/c2cp44326k,Double anions
mp-581967,Nb2O5,True,False,1.7731,-3.034205274693879,[3.4],,10.1039/c2nr11803c,Double anions
mp-581967,Nb2O5,True,False,1.7731,-3.034205274693879,[3.4],,10.1039/c4cc01183j,Double anions
mp-581967,Nb2O5,True,False,1.7731,-3.034205274693879,[3.4],,10.1039/c4ce01213e,Double anions
mp-581967,Nb2O5,True,False,1.7731,-3.034205274693879,[3.4],,10.1039/c4ce01540a,Double anions
mp-581967,Nb2O5,True,False,1.7731,-3.034205274693879,[3.4],,10.1039/c4ta01567c,Double anions
mp-581967,Nb2O5,True,False,1.7731,-3.034205274693879,[3.2],,10.1039/c4ta01567c,Double anions
mp-581967,Nb2O5,True,False,1.7731,-3.034205274693879,[3.4],,10.1039/c4ta02561j,Double anions
mp-581967,Nb2O5,True,False,1.7731,-3.034205274693879,[3.97],,10.1039/c4ta02561j,Double anions
mp-581967,Nb2O5,True,False,1.7731,-3.034205274693879,[3.13],,10.1039/c5ra05348j,Double anions
mp-581967,Nb2O5,True,False,1.7731,-3.034205274693879,[3.2],,10.1039/c5ra17555k,Double anions
mp-581967,Nb2O5,True,False,1.7731,-3.034205274693879,[2.4],,10.1039/c5ra17555k,Double anions
mp-581967,Nb2O5,True,False,1.7731,-3.034205274693879,[3.2],,10.1039/c5ta03214h,Double anions
mp-581967,Nb2O5,True,False,1.7731,-3.034205274693879,[3.4],,10.1039/c6dt03548e,Double anions
mp-581967,Nb2O5,True,False,1.7731,-3.034205274693879,[3.4],,10.1039/c6nr01340f,Double anions
mp-581967,Nb2O5,True,False,1.7731,-3.034205274693879,[2.9],,10.1039/c6nr01340f,Double anions
mp-581967,Nb2O5,True,False,1.7731,-3.034205274693879,[3.2],,10.1039/c6ra06023d,Double anions
mp-581967,Nb2O5,True,False,1.7731,-3.034205274693879,[3.4],,10.1039/c7dt02611k,Double anions
mp-581967,Nb2O5,True,False,1.7731,-3.034205274693879,[4.2],,10.1039/c7dt04825d,Double anions
mp-581967,Nb2O5,True,False,1.7731,-3.034205274693879,[3.2],,10.1039/c7ra09829d,Double anions
mp-581967,Nb2O5,True,False,1.7731,-3.034205274693879,[3.2],,10.1039/c8ra10432h,Double anions
mp-581967,Nb2O5,True,False,1.7731,-3.034205274693879,[3.12],,10.1039/c8ra10432h,Double anions
mp-581967,Nb2O5,True,False,1.7731,-3.034205274693879,[3.0],,10.1039/c9na00305c,Double anions
mp-581967,Nb2O5,True,False,1.7731,-3.034205274693879,[3.4],,10.1039/c9ra07505d,Double anions
mp-581967,Nb2O5,True,False,1.7731,-3.034205274693879,[3.4],,10.1039/c3ta11042g,Double anions
mp-581967,Nb2O5,True,False,1.7731,-3.034205274693879,[3.4],,10.1039/c4ta00365a,Double anions
mp-581967,Nb2O5,True,False,1.7731,-3.034205274693879,[3.1],,10.1039/c4ta00365a,Double anions
mp-581967,Nb2O5,True,False,1.7731,-3.034205274693879,[3.65],,10.1039/c5ra05074j,Double anions
mp-581967,Nb2O5,True,False,1.7731,-3.034205274693879,[3.4],,10.1039/c5ra05074j,Double anions
mp-581967,Nb2O5,True,False,1.7731,-3.034205274693879,[2.55],,10.1039/c5ra05074j,Double anions
mp-581967,Nb2O5,True,False,1.7731,-3.034205274693879,[3.2],,10.1039/c8ta12118d,Double anions
mp-581967,Nb2O5,True,False,1.7731,-3.034205274693879,[3.2],,10.1039/c9qi01196j,Double anions
mp-581967,Nb2O5,True,False,1.7731,-3.034205274693879,[3.4],,10.1039/d0ta07282f,Double anions
mp-581967,Nb2O5,True,False,1.7731,-3.034205274693879,[3.4],,10.1039/c3ce41210e,Double anions
mp-581967,Nb2O5,True,False,1.7731,-3.034205274693879,[3.37],,10.1039/c4ce00987h,Double anions
mp-581967,Nb2O5,True,False,1.7731,-3.034205274693879,[3.4],,10.1039/c7dt04582d,Double anions
mp-581967,Nb2O5,True,False,1.7731,-3.034205274693879,[3.15],,10.1039/d0dt01073a,Double anions
mp-581967,Nb2O5,True,False,1.7731,-3.034205274693879,[2.41],,10.1039/d0dt01073a,Double anions
mp-581967,Nb2O5,True,False,1.7731,-3.034205274693879,[3.4],,10.1039/c0ce00449a,Double anions
mp-581967,Nb2O5,True,False,1.7731,-3.034205274693879,[3.5],,10.1039/c3ta12390a,Double anions
mp-581967,Nb2O5,True,False,1.7731,-3.034205274693879,[3.1],,10.1007/s10854-016-5555-5,Double anions
mp-581967,Nb2O5,True,False,1.7731,-3.034205274693879,[3.4],,10.1007/s10971-011-2510-z,Double anions
mp-581967,Nb2O5,True,False,1.7731,-3.034205274693879,[3.4],,10.1007/s10854-016-4648-5,Double anions
mp-581967,Nb2O5,True,False,1.7731,-3.034205274693879,[3.42],,10.1007/s10854-019-01319-8,Double anions
mp-581967,Nb2O5,True,False,1.7731,-3.034205274693879,[2.1],450,10.1007/s10904-011-9582-7,Double anions
mp-581967,Nb2O5,True,False,1.7731,-3.034205274693879,[3.5],,10.1007/s11244-020-01313-z,Double anions
mp-581967,Nb2O5,True,False,1.7731,-3.034205274693879,[3.2],,10.1007/s10563-011-9126-8,Double anions
mp-581967,Nb2O5,True,False,1.7731,-3.034205274693879,[3.4],,10.1007/s10832-014-9977-2,Double anions
mp-581967,Nb2O5,True,False,1.7731,-3.034205274693879,[3.5],,10.1007/s10971-019-05146-5,Double anions
mp-581967,Nb2O5,True,False,1.7731,-3.034205274693879,[3.4],,10.1007/s00214-013-1435-8,Double anions
mp-581967,Nb2O5,True,False,1.7731,-3.034205274693879,[3.49],,10.1007/s10008-019-04481-5,Double anions
mp-581967,Nb2O5,True,False,1.7731,-3.034205274693879,[3.1],,10.1007/s10854-018-0446-6,Double anions
mp-581967,Nb2O5,True,False,1.7731,-3.034205274693879,[3.12],,10.1007/s10854-018-0446-6,Double anions
mp-581967,Nb2O5,True,False,1.7731,-3.034205274693879,[3.123],,10.1007/s10854-018-9770-0,Double anions
mp-581967,Nb2O5,True,False,1.7731,-3.034205274693879,[3.4],,10.1007/s10876-013-0661-5,Double anions
mp-581967,Nb2O5,True,False,1.7731,-3.034205274693879,[3.4],,10.1186/1556-276X-6-138,Double anions
mp-581967,Nb2O5,True,False,1.7731,-3.034205274693879,[3.72],,10.1186/1556-276X-6-138,Double anions
mp-581967,Nb2O5,True,False,1.7731,-3.034205274693879,[3.4],,10.1186/1556-276X-7-341,Double anions
mp-581967,Nb2O5,True,False,1.7731,-3.034205274693879,[3.0],,10.1007/s10854-019-02762-3,Double anions
mp-581967,Nb2O5,True,False,1.7731,-3.034205274693879,[3.75],,10.1007/s11356-020-11262-5,Double anions
mp-581967,Nb2O5,True,False,1.7731,-3.034205274693879,[3.2],,10.1038/srep13475,Double anions
mp-581967,Nb2O5,True,False,1.7731,-3.034205274693879,[3.35],600,10.1007/s10853-016-0184-1,Double anions
mp-581967,Nb2O5,True,False,1.7731,-3.034205274693879,[3.3],,10.1007/s10854-016-4490-9,Double anions
mp-581967,Nb2O5,True,False,1.7731,-3.034205274693879,[3.4],,10.1007/s11082-018-1580-3,Double anions
mp-581967,Nb2O5,True,False,1.7731,-3.034205274693879,[3.4],,10.1007/s11356-013-2456-5,Double anions
mp-581967,Nb2O5,True,False,1.7731,-3.034205274693879,[3.18],,10.1007/s11356-013-2456-5,Double anions
mp-581967,Nb2O5,True,False,1.7731,-3.034205274693879,[3.9],,10.1103/PhysRevB.60.2333,Double anions
mp-581967,Nb2O5,True,False,1.7731,-3.034205274693879,[3.48],,10.1021/jacs.5b03986,Double anions
mp-581967,Nb2O5,True,False,1.7731,-3.034205274693879,[1.65],,10.1021/jacs.5b03986,Double anions
mp-581967,Nb2O5,True,False,1.7731,-3.034205274693879,[3.08],,10.1021/jacs.5b03986,Double anions
mp-17832,RbBaPO4,True,False,4.995900000000001,-3.027209593163264,[5.39],,10.1007/s10854-015-3745-1,Oxides
mp-19386,Sr3V2O8,True,False,3.676,-3.01776698923077,[3.45],,10.1039/c2ra20937c,Double anions
mp-1205353,KMnF3,True,False,2.4058,-3.017527203536205,[3.04],,10.1039/d0ra01411g,Halides
mp-1214937,Ba2LaV3O11,False,True,3.5103,-3.015995105882353,[3.35],,10.1039/c5cp04115e,Double anions
mp-558749,RbMnF3,True,False,2.943699999999999,-3.014906922586206,[1.49],,10.1007/s10948-019-05158-w,Halides
mp-558749,RbMnF3,True,False,2.943699999999999,-3.014906922586206,[1.8],,10.1007/s10948-019-05158-w,Halides
mp-1195550,K2Ce(PO4)2,True,False,1.4179,-3.014878776060439,[2.46],,10.1016/j.jallcom.2017.02.080,Double anions
mp-27998,KNb3O8,True,False,2.4752,-2.986958873937498,[4.1],,10.1039/b210055j,Oxides
mp-2931,Li2TiO3,True,False,3.0338,-2.981954403333334,[3.3],,10.1039/c7nj00198c,Double anions
mp-3368,LiNb3O8,True,False,3.017,-2.980640704027777,[3.9],,10.1039/c3ra45520c,Oxides
mp-3368,LiNb3O8,True,False,3.017,-2.980640704027777,[3.9],,10.1186/s11671-017-2273-8,Oxides
mp-1019602,Cs2Al2B2O7,True,False,4.249,-2.976087887126436,[4.13],,10.1039/b917907k,Double anions
mp-1020023,Li3AlSiO5,True,False,4.9447,-2.9747119095,[7.29],,10.1039/c5cp06884c,Chalcogenides
mp-1020023,Li3AlSiO5,True,False,4.9447,-2.9747119095,[6.53],,10.1039/c5cp06884c,Chalcogenides
mp-1020023,Li3AlSiO5,True,False,4.9447,-2.9747119095,[6.05],,10.1039/c5cp06884c,Chalcogenides
mp-556585,MnF2,True,False,2.3648,-2.968549388477012,[2.05],,10.1039/c4cp02048k,Double anions
mp-556585,MnF2,True,False,2.3648,-2.968549388477012,[3.14],,10.1039/c7ta00862g,Double anions
mp-556585,MnF2,True,False,2.3648,-2.968549388477012,[9.9],,10.1021/jacs.5b03986,Double anions
mp-556585,MnF2,True,False,2.3648,-2.968549388477012,[10.2],,10.1021/jacs.5b03986,Double anions
mp-556585,MnF2,True,False,2.3648,-2.968549388477012,[10.24],,10.1021/jacs.5b03986,Double anions
mp-1180700,LaMnO3,False,True,1.1014,-2.967020409086208,[1.7],,10.1016/j.jallcom.2015.09.187,Oxides
mp-1180700,LaMnO3,False,True,1.1014,-2.967020409086208,[1.1],,10.1039/b211812b,Oxides
mp-1180700,LaMnO3,False,True,1.1014,-2.967020409086208,[2.04],,10.1039/c9cp02486g,Oxides
mp-1180700,LaMnO3,False,True,1.1014,-2.967020409086208,[2.82],,10.1039/c5qi00124b,Oxides
mp-1180700,LaMnO3,False,True,1.1014,-2.967020409086208,[2.66],,10.1039/c8cp02137f,Oxides
mp-1180700,LaMnO3,False,True,1.1014,-2.967020409086208,[1.6],,10.1038/s41467-019-09698-6,Oxides
mp-1180700,LaMnO3,False,True,1.1014,-2.967020409086208,[1.7],,10.1007/s12598-019-01207-4,Oxides
mp-1180700,LaMnO3,False,True,1.1014,-2.967020409086208,[1.32],,10.1038/s41598-019-44118-1,Oxides
mp-1180700,LaMnO3,False,True,1.1014,-2.967020409086208,[2.11],,10.1007/s10853-019-04205-0,Oxides
mp-1180700,LaMnO3,False,True,1.1014,-2.967020409086208,[3.0],,10.1007/s11244-018-0895-4,Oxides
mp-1180700,LaMnO3,False,True,1.1014,-2.967020409086208,[0.8],,10.1007/s11244-018-0895-4,Oxides
mp-1180700,LaMnO3,False,True,1.1014,-2.967020409086208,[1.0],,10.1038/ncomms2061,Oxides
mp-8042,ZrGeO4,False,False,3.750099999999999,-2.964421039166659,[5.79],,10.1007/s11664-016-4767-z,Oxides
mp-20852,NdMnO3,True,False,1.898,-2.963478812086206,[3.02],,10.1038/s41598-019-50393-9,Oxides
mp-567680,BaCl2,False,False,4.5724,-2.958708906666667,[8.0],,10.1039/d0qi01054e,Double anions
mp-567680,BaCl2,False,False,4.5724,-2.958708906666667,[5.0],,10.1007/s12034-017-1430-0,Double anions
mp-623854,NaNb3O8,True,False,2.4842,-2.9586486913649424,[2.57],,10.1021/acs.chemmater.7b02683,Oxides
mp-623854,NaNb3O8,True,False,2.4842,-2.9586486913649424,[2.5],,10.1021/acs.chemmater.7b02683,Oxides
mp-4394,Pr2Sn2O7,True,False,2.6358,-2.955287218030299,[4.19],,10.1039/c5ra26028k,Double anions
mp-5444,Y3Ga5O12,True,False,3.5498000000000003,-2.952501735625001,[0.0631],,10.1039/d0cp03520c,Double anions
mp-560459,Rb3Al2(PO4)3,True,False,4.4183,-2.932643588821427,[5.17],,10.1039/c8qi01249k,Double anions
mp-560459,Rb3Al2(PO4)3,True,False,4.4183,-2.932643588821427,[4.54],,10.1039/c8qi01249k,Double anions
mp-540962,KLa(PO3)4,True,False,4.8558,-2.930340037545635,[5.11],,10.1016/j.jallcom.2014.04.167,Oxides
mp-540962,KLa(PO3)4,True,False,4.8558,-2.930340037545635,[4.7],,10.1016/j.jallcom.2014.04.167,Oxides
mp-560692,K4Nb6O17,True,False,2.6581,-2.9229413715370383,[3.1],,10.1016/j.cej.2013.03.091,Oxides
mp-560692,K4Nb6O17,True,False,2.6581,-2.9229413715370383,[3.5],,10.1039/c6cy01666a,Oxides
mp-560692,K4Nb6O17,True,False,2.6581,-2.9229413715370383,[3.7],,10.1039/c6dt02338j,Oxides
mp-560692,K4Nb6O17,True,False,2.6581,-2.9229413715370383,[3.3],,10.1039/b400130n,Oxides
mp-560692,K4Nb6O17,True,False,2.6581,-2.9229413715370383,[3.1],,10.1039/c8ra03597k,Oxides
mp-560692,K4Nb6O17,True,False,2.6581,-2.9229413715370383,[3.2],,10.1007/s10934-007-9179-2,Oxides
mp-19474,Ba2V2O7,True,False,3.4599,-2.922540033863693,[3.22],,10.1039/d0nj02316g,Double anions
mp-1221129,NaCaBO3,True,True,3.8471,-2.910027832590996,[3.78],,10.1039/c5cp04420k,Oxides
mp-1221129,NaCaBO3,True,True,3.8471,-2.910027832590996,[4.48],,10.1039/c7ra06026b,Oxides
mp-1211317,LaBWO6,False,True,3.8287,-2.909348835462962,[4.1],,10.1016/j.optmat.2014.03.031,Oxides
mp-27614,Ca2V2O7,True,False,2.9553000000000003,-2.908076423636363,[2.67],,10.1039/c8ra03347a,Double anions
mp-3193,Na2Si2O5,True,False,4.4712,-2.902866989473182,[4.22],,10.1039/c5ta04474j,Double anions
mp-3731,LiNbO3,True,False,3.3358,-2.899517651666666,[4.3],,10.1016/j.optmat.2008.01.018,Oxides
mp-3731,LiNbO3,True,False,3.3358,-2.899517651666666,[3.32],,10.1016/j.physb.2011.11.001,Oxides
mp-3731,LiNbO3,True,False,3.3358,-2.899517651666666,[3.49],,10.1016/j.physb.2013.05.017,Oxides
mp-3731,LiNbO3,True,False,3.3358,-2.899517651666666,[4.43],,10.1016/j.tsf.2011.09.030,Oxides
mp-3731,LiNbO3,True,False,3.3358,-2.899517651666666,[4.55],,10.1016/j.tsf.2011.09.030,Oxides
mp-3731,LiNbO3,True,False,3.3358,-2.899517651666666,[4.0],,10.1039/c2ra20237a,Oxides
mp-3731,LiNbO3,True,False,3.3358,-2.899517651666666,[4.3],,10.1039/c2ra20237a,Oxides
mp-3731,LiNbO3,True,False,3.3358,-2.899517651666666,[3.0],,10.1039/c7se00277g,Oxides
mp-3731,LiNbO3,True,False,3.3358,-2.899517651666666,[5.21],,10.1039/c8cp00694f,Oxides
mp-3731,LiNbO3,True,False,3.3358,-2.899517651666666,[3.0],,10.1039/c7ta06221d,Oxides