mpids,formula,is_stable,theoretical,band_gap,formation_energy_per_atom,Value,Temperature_raw_value,DOI,compound_type
mp-4651,SrTiO3,True,True,1.848799999999999,-3.551662291666667,[3.2],,10.1007/s10854-015-3223-9,Chalcogenides
mp-4651,SrTiO3,True,True,1.848799999999999,-3.551662291666667,[3.1],,10.1007/s10854-015-3223-9,Chalcogenides
mp-4651,SrTiO3,True,True,1.848799999999999,-3.551662291666667,[3.0],,10.1007/s11164-019-03895-0,Chalcogenides
mp-4651,SrTiO3,True,True,1.848799999999999,-3.551662291666667,[3.2],,10.1007/s11356-019-07060-3,Chalcogenides
mp-4651,SrTiO3,True,True,1.848799999999999,-3.551662291666667,[2.93],,10.1007/s11356-019-07060-3,Chalcogenides
mp-4651,SrTiO3,True,True,1.848799999999999,-3.551662291666667,[3.2],,10.1038/ncomms1084,Chalcogenides
mp-4651,SrTiO3,True,True,1.848799999999999,-3.551662291666667,[3.21],,10.1186/s40064-016-2804-2,Chalcogenides
mp-4651,SrTiO3,True,True,1.848799999999999,-3.551662291666667,[2.44],,10.1007/s00339-019-2466-3,Chalcogenides
mp-4651,SrTiO3,True,True,1.848799999999999,-3.551662291666667,[1.12],,10.1007/s10562-012-0876-3,Chalcogenides
mp-4651,SrTiO3,True,True,1.848799999999999,-3.551662291666667,[3.2],,10.1007/s10800-007-9333-1,Chalcogenides
mp-4651,SrTiO3,True,True,1.848799999999999,-3.551662291666667,[3.3],300,10.1007/s10832-017-0081-2,Chalcogenides
mp-4651,SrTiO3,True,True,1.848799999999999,-3.551662291666667,[3.2],,10.1007/s11164-016-2705-6,Chalcogenides
mp-4651,SrTiO3,True,True,1.848799999999999,-3.551662291666667,[5.19],,10.1007/s11164-016-2705-6,Chalcogenides
mp-4651,SrTiO3,True,True,1.848799999999999,-3.551662291666667,[3.3],,10.1007/s11666-020-01022-9,Chalcogenides
mp-4651,SrTiO3,True,True,1.848799999999999,-3.551662291666667,[0.7],,10.1038/ncomms4990,Chalcogenides
mp-4651,SrTiO3,True,True,1.848799999999999,-3.551662291666667,[3.25],,10.1038/srep29724,Chalcogenides
mp-4651,SrTiO3,True,True,1.848799999999999,-3.551662291666667,[0.64],,10.1186/1556-276X-6-193,Chalcogenides
mp-1208761,Sr2SmTaO6,True,True,3.7716,-3.545386613233334,[3.38],,10.1039/c6dt04767j,Double anions
mp-1227590,Ca2Al3O6F,False,True,4.4961,-3.544451279791666,[6.46],,10.1039/c2jm32733c,Double anions
mp-1403610,CaTi2O5,False,True,2.9078,-3.543918041458333,[2.91],,10.1016/j.optmat.2020.109921,Double anions
mp-1403610,CaTi2O5,False,True,2.9078,-3.543918041458333,[3.28],,10.1007/s12598-020-01461-x,Double anions
mp-5387,YNbO4,True,False,3.497499999999999,-3.543508845,[4.3],,10.1016/j.cej.2016.03.149,Oxides
mp-5387,YNbO4,True,False,3.497499999999999,-3.543508845,[4.68],,10.1016/j.optmat.2018.05.019,Oxides
mp-5387,YNbO4,True,False,3.497499999999999,-3.543508845,[3.72],,10.1039/d0tc04098c,Oxides
mp-5387,YNbO4,True,False,3.497499999999999,-3.543508845,[4.101],,10.1007/s10854-018-9288-5,Oxides
mp-5387,YNbO4,True,False,3.497499999999999,-3.543508845,[4.36],,10.1007/s10854-018-9288-5,Oxides
mp-3962,LaPO4,True,False,4.486000000000001,-3.538097613829366,[8.0],,10.1016/j.optmat.2010.12.019,Oxides
mp-3962,LaPO4,True,False,4.486000000000001,-3.538097613829366,[5.18],,10.1016/j.optmat.2014.04.011,Oxides
mp-3962,LaPO4,True,False,4.486000000000001,-3.538097613829366,[4.96],,10.1016/j.optmat.2014.04.011,Oxides
mp-3962,LaPO4,True,False,4.486000000000001,-3.538097613829366,[3.6],,10.1016/j.optmat.2016.01.015,Oxides
mp-3962,LaPO4,True,False,4.486000000000001,-3.538097613829366,[5.15],,10.1039/c8tc06119j,Oxides
mp-3962,LaPO4,True,False,4.486000000000001,-3.538097613829366,[8.0],,10.1039/c4ra05933f,Oxides
mp-3962,LaPO4,True,False,4.486000000000001,-3.538097613829366,[2.87],,10.1007/s11164-012-0692-9,Oxides
mp-3962,LaPO4,True,False,4.486000000000001,-3.538097613829366,[5.3],,10.1007/s00339-017-1224-7,Oxides
mp-3962,LaPO4,True,False,4.486000000000001,-3.538097613829366,[2.71],,10.1007/s10904-017-0657-y,Oxides
mp-15751,Ba3Y4O9,False,False,3.3201,-3.527433782187499,[5.41],,10.1007/s10854-019-01199-y,Oxides
mp-8216,LaBO3,True,False,4.500700000000001,-3.521145549833336,[1.67],,10.1016/j.optmat.2019.109487,Oxides
mp-1214622,Ba2SmTaO6,True,True,3.3634,-3.518325293233334,[3.02],,10.1039/c6dt04767j,Double anions
mp-3175,BaTi4O9,False,False,2.7041999999999997,-3.5136086255952392,[3.55],,10.1007/s10562-008-9420-x,Oxides
mp-390,TiO2,True,False,2.0586,-3.508055451944444,[3.2],,10.1016/j.cej.2006.05.011,Double anions
mp-390,TiO2,True,False,2.0586,-3.508055451944444,[3.2],,10.1016/j.cej.2006.07.006,Double anions
mp-390,TiO2,True,False,2.0586,-3.508055451944444,[3.2],,10.1016/j.cej.2006.09.009,Double anions
mp-390,TiO2,True,False,2.0586,-3.508055451944444,[3.2],,10.1016/j.cej.2007.05.028,Double anions
mp-390,TiO2,True,False,2.0586,-3.508055451944444,[3.2],,10.1016/j.cej.2008.07.004,Double anions
mp-390,TiO2,True,False,2.0586,-3.508055451944444,[3.2],,10.1016/j.cej.2008.11.039,Double anions
mp-390,TiO2,True,False,2.0586,-3.508055451944444,[2.9],,10.1016/j.cej.2009.03.021,Double anions
mp-390,TiO2,True,False,2.0586,-3.508055451944444,[2.75],,10.1016/j.cej.2009.03.031,Double anions
mp-390,TiO2,True,False,2.0586,-3.508055451944444,[3.2],,10.1016/j.cej.2009.04.037,Double anions
mp-390,TiO2,True,False,2.0586,-3.508055451944444,[3.2],500,10.1016/j.cej.2009.07.036,Double anions
mp-390,TiO2,True,False,2.0586,-3.508055451944444,[3.2],,10.1016/j.cej.2009.10.043,Double anions
mp-390,TiO2,True,False,2.0586,-3.508055451944444,[3.0],,10.1016/j.cej.2009.12.038,Double anions
mp-390,TiO2,True,False,2.0586,-3.508055451944444,[3.2],,10.1016/j.cej.2010.01.050,Double anions
mp-390,TiO2,True,False,2.0586,-3.508055451944444,[3.2],,10.1016/j.cej.2010.04.020,Double anions
mp-390,TiO2,True,False,2.0586,-3.508055451944444,[3.2],,10.1016/j.cej.2010.04.034,Double anions
mp-390,TiO2,True,False,2.0586,-3.508055451944444,[3.2],,10.1016/j.cej.2010.05.024,Double anions
mp-390,TiO2,True,False,2.0586,-3.508055451944444,[3.0],,10.1016/j.cej.2010.05.069,Double anions
mp-390,TiO2,True,False,2.0586,-3.508055451944444,[2.81],,10.1016/j.cej.2010.05.069,Double anions
mp-390,TiO2,True,False,2.0586,-3.508055451944444,[1.4],,10.1016/j.cej.2010.05.069,Double anions
mp-390,TiO2,True,False,2.0586,-3.508055451944444,[2.74],,10.1016/j.cej.2010.06.030,Double anions
mp-390,TiO2,True,False,2.0586,-3.508055451944444,[3.1],,10.1016/j.cej.2010.06.034,Double anions
mp-390,TiO2,True,False,2.0586,-3.508055451944444,[3.2],,10.1016/j.cej.2010.07.008,Double anions
mp-390,TiO2,True,False,2.0586,-3.508055451944444,[3.2],,10.1016/j.cej.2010.08.027,Double anions
mp-390,TiO2,True,False,2.0586,-3.508055451944444,[3.02],,10.1016/j.cej.2010.09.021,Double anions
mp-390,TiO2,True,False,2.0586,-3.508055451944444,[3.2],,10.1016/j.cej.2010.09.025,Double anions
mp-390,TiO2,True,False,2.0586,-3.508055451944444,[3.2],,10.1016/j.cej.2010.09.044,Double anions
mp-390,TiO2,True,False,2.0586,-3.508055451944444,[3.2],,10.1016/j.cej.2010.10.018,Double anions
mp-390,TiO2,True,False,2.0586,-3.508055451944444,[2.07],,10.1016/j.cej.2010.10.018,Double anions
mp-390,TiO2,True,False,2.0586,-3.508055451944444,[3.2],,10.1016/j.cej.2010.10.040,Double anions
mp-390,TiO2,True,False,2.0586,-3.508055451944444,[3.2],,10.1016/j.cej.2010.10.074,Double anions
mp-390,TiO2,True,False,2.0586,-3.508055451944444,[3.1],,10.1016/j.cej.2010.10.074,Double anions
mp-390,TiO2,True,False,2.0586,-3.508055451944444,[3.2],,10.1016/j.cej.2010.11.040,Double anions
mp-390,TiO2,True,False,2.0586,-3.508055451944444,[2.5],,10.1016/j.cej.2010.11.040,Double anions
mp-390,TiO2,True,False,2.0586,-3.508055451944444,[2.8],,10.1016/j.cej.2010.12.007,Double anions
mp-390,TiO2,True,False,2.0586,-3.508055451944444,[3.2],,10.1016/j.cej.2010.12.020,Double anions
mp-390,TiO2,True,False,2.0586,-3.508055451944444,[3.2],,10.1016/j.cej.2011.01.028,Double anions
mp-390,TiO2,True,False,2.0586,-3.508055451944444,[3.23],,10.1016/j.cej.2011.01.038,Double anions
mp-390,TiO2,True,False,2.0586,-3.508055451944444,[3.2],,10.1016/j.cej.2011.02.002,Double anions
mp-390,TiO2,True,False,2.0586,-3.508055451944444,[3.23],,10.1016/j.cej.2011.02.057,Double anions
mp-390,TiO2,True,False,2.0586,-3.508055451944444,[3.16],,10.1016/j.cej.2011.02.058,Double anions
mp-390,TiO2,True,False,2.0586,-3.508055451944444,[0.04],,10.1016/j.cej.2011.02.058,Double anions
mp-390,TiO2,True,False,2.0586,-3.508055451944444,[3.2],,10.1016/j.cej.2011.02.058,Double anions
mp-390,TiO2,True,False,2.0586,-3.508055451944444,[3.2],,10.1016/j.cej.2011.07.069,Double anions
mp-390,TiO2,True,False,2.0586,-3.508055451944444,[3.2],,10.1016/j.cej.2011.08.028,Double anions
mp-390,TiO2,True,False,2.0586,-3.508055451944444,[3.18],,10.1016/j.cej.2011.08.028,Double anions
mp-390,TiO2,True,False,2.0586,-3.508055451944444,[3.2],,10.1016/j.cej.2011.08.043,Double anions
mp-390,TiO2,True,False,2.0586,-3.508055451944444,[3.2],,10.1016/j.cej.2011.09.024,Double anions
mp-390,TiO2,True,False,2.0586,-3.508055451944444,[3.2],,10.1016/j.cej.2011.09.032,Double anions
mp-390,TiO2,True,False,2.0586,-3.508055451944444,[3.2],,10.1016/j.cej.2011.09.054,Double anions
mp-390,TiO2,True,False,2.0586,-3.508055451944444,[3.12],,10.1016/j.cej.2011.10.007,Double anions
mp-390,TiO2,True,False,2.0586,-3.508055451944444,[3.6],,10.1016/j.cej.2011.10.061,Double anions
mp-390,TiO2,True,False,2.0586,-3.508055451944444,[3.2],,10.1016/j.cej.2011.11.045,Double anions
mp-390,TiO2,True,False,2.0586,-3.508055451944444,[3.2],,10.1016/j.cej.2011.11.075,Double anions
mp-390,TiO2,True,False,2.0586,-3.508055451944444,[2.76],,10.1016/j.cej.2012.01.006,Double anions
mp-390,TiO2,True,False,2.0586,-3.508055451944444,[3.2],,10.1016/j.cej.2012.01.006,Double anions
mp-390,TiO2,True,False,2.0586,-3.508055451944444,[3.2],,10.1016/j.cej.2012.02.077,Double anions
mp-390,TiO2,True,False,2.0586,-3.508055451944444,[3.2],,10.1016/j.cej.2012.02.078,Double anions
mp-390,TiO2,True,False,2.0586,-3.508055451944444,[3.1],,10.1016/j.cej.2012.03.035,Double anions
mp-390,TiO2,True,False,2.0586,-3.508055451944444,[2.7],,10.1016/j.cej.2012.03.038,Double anions
mp-390,TiO2,True,False,2.0586,-3.508055451944444,[3.0],,10.1016/j.cej.2012.04.047,Double anions
mp-390,TiO2,True,False,2.0586,-3.508055451944444,[2.27],,10.1016/j.cej.2012.04.047,Double anions
mp-390,TiO2,True,False,2.0586,-3.508055451944444,[3.37],,10.1016/j.cej.2012.04.081,Double anions
mp-390,TiO2,True,False,2.0586,-3.508055451944444,[3.2],,10.1016/j.cej.2012.06.021,Double anions
mp-390,TiO2,True,False,2.0586,-3.508055451944444,[3.18],,10.1016/j.cej.2012.06.021,Double anions
mp-390,TiO2,True,False,2.0586,-3.508055451944444,[3.2],,10.1016/j.cej.2012.07.022,Double anions
mp-390,TiO2,True,False,2.0586,-3.508055451944444,[3.18],,10.1016/j.cej.2012.07.022,Double anions
mp-390,TiO2,True,False,2.0586,-3.508055451944444,[3.2],,10.1016/j.cej.2012.07.093,Double anions
mp-390,TiO2,True,False,2.0586,-3.508055451944444,[3.21],,10.1016/j.cej.2012.07.137,Double anions
mp-390,TiO2,True,False,2.0586,-3.508055451944444,[3.01],,10.1016/j.cej.2012.07.137,Double anions
mp-390,TiO2,True,False,2.0586,-3.508055451944444,[3.0],,10.1016/j.cej.2012.08.044,Double anions
mp-390,TiO2,True,False,2.0586,-3.508055451944444,[3.0],,10.1016/j.cej.2012.09.004,Double anions
mp-390,TiO2,True,False,2.0586,-3.508055451944444,[3.2],,10.1016/j.cej.2012.09.070,Double anions
mp-390,TiO2,True,False,2.0586,-3.508055451944444,[2.4],,10.1016/j.cej.2012.09.070,Double anions
mp-390,TiO2,True,False,2.0586,-3.508055451944444,[3.2],,10.1016/j.cej.2012.09.105,Double anions
mp-390,TiO2,True,False,2.0586,-3.508055451944444,[3.02],,10.1016/j.cej.2012.09.108,Double anions
mp-390,TiO2,True,False,2.0586,-3.508055451944444,[2.32],,10.1016/j.cej.2012.10.039,Double anions
mp-390,TiO2,True,False,2.0586,-3.508055451944444,[3.2],,10.1016/j.cej.2012.10.058,Double anions
mp-390,TiO2,True,False,2.0586,-3.508055451944444,[3.12],,10.1016/j.cej.2012.10.058,Double anions
mp-390,TiO2,True,False,2.0586,-3.508055451944444,[2.78],,10.1016/j.cej.2012.10.058,Double anions
mp-390,TiO2,True,False,2.0586,-3.508055451944444,[3.7],,10.1016/j.cej.2012.10.071,Double anions
mp-390,TiO2,True,False,2.0586,-3.508055451944444,[3.2],,10.1016/j.cej.2012.11.074,Double anions
mp-390,TiO2,True,False,2.0586,-3.508055451944444,[2.42],,10.1016/j.cej.2012.11.080,Double anions
mp-390,TiO2,True,False,2.0586,-3.508055451944444,[3.0],,10.1016/j.cej.2012.11.080,Double anions
mp-390,TiO2,True,False,2.0586,-3.508055451944444,[2.79],,10.1016/j.cej.2012.11.080,Double anions
mp-390,TiO2,True,False,2.0586,-3.508055451944444,[3.2],,10.1016/j.cej.2012.11.102,Double anions
mp-390,TiO2,True,False,2.0586,-3.508055451944444,[3.2],,10.1016/j.cej.2012.12.065,Double anions
mp-390,TiO2,True,False,2.0586,-3.508055451944444,[3.2],,10.1016/j.cej.2013.01.031,Double anions
mp-390,TiO2,True,False,2.0586,-3.508055451944444,[2.8],,10.1016/j.cej.2013.01.036,Double anions
mp-390,TiO2,True,False,2.0586,-3.508055451944444,[3.0],,10.1016/j.cej.2013.01.036,Double anions
mp-390,TiO2,True,False,2.0586,-3.508055451944444,[3.2],,10.1016/j.cej.2013.01.036,Double anions
mp-390,TiO2,True,False,2.0586,-3.508055451944444,[3.2],,10.1016/j.cej.2013.02.030,Double anions
mp-390,TiO2,True,False,2.0586,-3.508055451944444,[3.2],,10.1016/j.cej.2013.02.092,Double anions
mp-390,TiO2,True,False,2.0586,-3.508055451944444,[3.37],,10.1016/j.cej.2013.02.128,Double anions
mp-390,TiO2,True,False,2.0586,-3.508055451944444,[3.0],,10.1016/j.cej.2013.03.025,Double anions
mp-390,TiO2,True,False,2.0586,-3.508055451944444,[3.2],,10.1016/j.cej.2013.03.032,Double anions
mp-390,TiO2,True,False,2.0586,-3.508055451944444,[3.2],,10.1016/j.cej.2013.03.052,Double anions
mp-390,TiO2,True,False,2.0586,-3.508055451944444,[3.2],,10.1016/j.cej.2013.03.076,Double anions
mp-390,TiO2,True,False,2.0586,-3.508055451944444,[3.0],,10.1016/j.cej.2013.03.101,Double anions
mp-390,TiO2,True,False,2.0586,-3.508055451944444,[3.2],,10.1016/j.cej.2013.03.121,Double anions
mp-390,TiO2,True,False,2.0586,-3.508055451944444,[3.2],,10.1016/j.cej.2013.04.047,Double anions
mp-390,TiO2,True,False,2.0586,-3.508055451944444,[3.2],,10.1016/j.cej.2013.04.048,Double anions
mp-390,TiO2,True,False,2.0586,-3.508055451944444,[3.2],,10.1016/j.cej.2013.04.065,Double anions
mp-390,TiO2,True,False,2.0586,-3.508055451944444,[3.16],,10.1016/j.cej.2013.04.110,Double anions
mp-390,TiO2,True,False,2.0586,-3.508055451944444,[3.2],,10.1016/j.cej.2013.05.106,Double anions
mp-390,TiO2,True,False,2.0586,-3.508055451944444,[2.16],,10.1016/j.cej.2013.05.110,Double anions
mp-390,TiO2,True,False,2.0586,-3.508055451944444,[3.1],,10.1016/j.cej.2013.06.004,Double anions
mp-390,TiO2,True,False,2.0586,-3.508055451944444,[3.2],,10.1016/j.cej.2013.06.053,Double anions
mp-390,TiO2,True,False,2.0586,-3.508055451944444,[3.2],,10.1016/j.cej.2013.06.091,Double anions
mp-390,TiO2,True,False,2.0586,-3.508055451944444,[3.02],,10.1016/j.cej.2013.07.019,Double anions
mp-390,TiO2,True,False,2.0586,-3.508055451944444,[2.63],,10.1016/j.cej.2013.07.020,Double anions
mp-390,TiO2,True,False,2.0586,-3.508055451944444,[3.1],,10.1016/j.cej.2013.07.054,Double anions
mp-390,TiO2,True,False,2.0586,-3.508055451944444,[3.2],,10.1016/j.cej.2013.07.083,Double anions
mp-390,TiO2,True,False,2.0586,-3.508055451944444,[3.2],,10.1016/j.cej.2013.08.091,Double anions
mp-390,TiO2,True,False,2.0586,-3.508055451944444,[3.2],,10.1016/j.cej.2013.08.112,Double anions
mp-390,TiO2,True,False,2.0586,-3.508055451944444,[2.9],,10.1016/j.cej.2013.09.043,Double anions
mp-390,TiO2,True,False,2.0586,-3.508055451944444,[1.8],,10.1016/j.cej.2013.09.043,Double anions
mp-390,TiO2,True,False,2.0586,-3.508055451944444,[3.2],,10.1016/j.cej.2013.10.001,Double anions
mp-390,TiO2,True,False,2.0586,-3.508055451944444,[2.8],,10.1016/j.cej.2013.10.003,Double anions
mp-390,TiO2,True,False,2.0586,-3.508055451944444,[2.67],,10.1016/j.cej.2013.10.057,Double anions
mp-390,TiO2,True,False,2.0586,-3.508055451944444,[3.18],,10.1016/j.cej.2013.10.057,Double anions
mp-390,TiO2,True,False,2.0586,-3.508055451944444,[3.0],,10.1016/j.cej.2013.11.016,Double anions
mp-390,TiO2,True,False,2.0586,-3.508055451944444,[3.17],,10.1016/j.cej.2013.11.031,Double anions
mp-390,TiO2,True,False,2.0586,-3.508055451944444,[3.2],,10.1016/j.cej.2013.11.085,Double anions
mp-390,TiO2,True,False,2.0586,-3.508055451944444,[3.26],,10.1016/j.cej.2013.12.028,Double anions
mp-390,TiO2,True,False,2.0586,-3.508055451944444,[3.2],,10.1016/j.cej.2014.01.020,Double anions
mp-390,TiO2,True,False,2.0586,-3.508055451944444,[3.2],,10.1016/j.cej.2014.01.068,Double anions
mp-390,TiO2,True,False,2.0586,-3.508055451944444,[3.2],,10.1016/j.cej.2014.02.015,Double anions
mp-390,TiO2,True,False,2.0586,-3.508055451944444,[3.1],,10.1016/j.cej.2014.02.028,Double anions
mp-390,TiO2,True,False,2.0586,-3.508055451944444,[3.2],,10.1016/j.cej.2014.02.085,Double anions
mp-390,TiO2,True,False,2.0586,-3.508055451944444,[2.8],,10.1016/j.cej.2014.02.085,Double anions
mp-390,TiO2,True,False,2.0586,-3.508055451944444,[3.2],,10.1016/j.cej.2014.03.001,Double anions
mp-390,TiO2,True,False,2.0586,-3.508055451944444,[3.2],,10.1016/j.cej.2014.03.075,Double anions
mp-390,TiO2,True,False,2.0586,-3.508055451944444,[3.2],,10.1016/j.cej.2014.03.095,Double anions
mp-390,TiO2,True,False,2.0586,-3.508055451944444,[2.34],,10.1016/j.cej.2014.04.107,Double anions
mp-390,TiO2,True,False,2.0586,-3.508055451944444,[3.02],,10.1016/j.cej.2014.05.041,Double anions
mp-390,TiO2,True,False,2.0586,-3.508055451944444,[2.83],,10.1016/j.cej.2014.05.103,Double anions
mp-390,TiO2,True,False,2.0586,-3.508055451944444,[3.2],,10.1016/j.cej.2014.05.140,Double anions
mp-390,TiO2,True,False,2.0586,-3.508055451944444,[3.2],,10.1016/j.cej.2014.06.055,Double anions
mp-390,TiO2,True,False,2.0586,-3.508055451944444,[2.94],,10.1016/j.cej.2014.06.055,Double anions
mp-390,TiO2,True,False,2.0586,-3.508055451944444,[3.2],,10.1016/j.cej.2014.06.089,Double anions
mp-390,TiO2,True,False,2.0586,-3.508055451944444,[2.9],,10.1016/j.cej.2014.07.026,Double anions
mp-390,TiO2,True,False,2.0586,-3.508055451944444,[3.2],,10.1016/j.cej.2014.07.026,Double anions
mp-390,TiO2,True,False,2.0586,-3.508055451944444,[3.27],,10.1016/j.cej.2014.07.026,Double anions
mp-390,TiO2,True,False,2.0586,-3.508055451944444,[3.2],,10.1016/j.cej.2014.07.059,Double anions
mp-390,TiO2,True,False,2.0586,-3.508055451944444,[3.06],,10.1016/j.cej.2014.10.011,Double anions
mp-390,TiO2,True,False,2.0586,-3.508055451944444,[3.2],,10.1016/j.cej.2014.10.052,Double anions
mp-390,TiO2,True,False,2.0586,-3.508055451944444,[3.2],,10.1016/j.cej.2014.11.119,Double anions
mp-390,TiO2,True,False,2.0586,-3.508055451944444,[3.3],,10.1016/j.cej.2014.12.015,Double anions
mp-390,TiO2,True,False,2.0586,-3.508055451944444,[3.2],,10.1016/j.cej.2014.12.023,Double anions
mp-390,TiO2,True,False,2.0586,-3.508055451944444,[3.2],,10.1016/j.cej.2015.01.065,Double anions
mp-390,TiO2,True,False,2.0586,-3.508055451944444,[3.08],,10.1016/j.cej.2015.01.117,Double anions
mp-390,TiO2,True,False,2.0586,-3.508055451944444,[3.2],,10.1016/j.cej.2015.02.048,Double anions
mp-390,TiO2,True,False,2.0586,-3.508055451944444,[3.2],,10.1016/j.cej.2015.02.085,Double anions
mp-390,TiO2,True,False,2.0586,-3.508055451944444,[3.2],,10.1016/j.cej.2015.03.077,Double anions
mp-390,TiO2,True,False,2.0586,-3.508055451944444,[3.2],,10.1016/j.cej.2015.03.090,Double anions
mp-390,TiO2,True,False,2.0586,-3.508055451944444,[3.2],,10.1016/j.cej.2015.03.135,Double anions
mp-390,TiO2,True,False,2.0586,-3.508055451944444,[2.73],,10.1016/j.cej.2015.03.135,Double anions
mp-390,TiO2,True,False,2.0586,-3.508055451944444,[3.2],,10.1016/j.cej.2015.04.015,Double anions
mp-390,TiO2,True,False,2.0586,-3.508055451944444,[3.2],,10.1016/j.cej.2015.04.055,Double anions
mp-390,TiO2,True,False,2.0586,-3.508055451944444,[3.2],,10.1016/j.cej.2015.05.126,Double anions
mp-390,TiO2,True,False,2.0586,-3.508055451944444,[3.2],,10.1016/j.cej.2015.06.098,Double anions
mp-390,TiO2,True,False,2.0586,-3.508055451944444,[3.2],,10.1016/j.cej.2015.06.120,Double anions
mp-390,TiO2,True,False,2.0586,-3.508055451944444,[2.15],,10.1016/j.cej.2015.07.064,Double anions
mp-390,TiO2,True,False,2.0586,-3.508055451944444,[1.35],,10.1016/j.cej.2015.07.064,Double anions