mpids,formula,is_stable,theoretical,band_gap,formation_energy_per_atom,Value,Temperature_raw_value,DOI,compound_type
mp-390,TiO2,True,False,2.0586,-3.508055451944444,[3.2],,10.1039/c4ra06152g,Double anions
mp-390,TiO2,True,False,2.0586,-3.508055451944444,[3.2],,10.1039/c4ra06451h,Double anions
mp-390,TiO2,True,False,2.0586,-3.508055451944444,[3.67],,10.1039/c4ra07324j,Double anions
mp-390,TiO2,True,False,2.0586,-3.508055451944444,[3.2],,10.1039/c4ra07427k,Double anions
mp-390,TiO2,True,False,2.0586,-3.508055451944444,[3.2],,10.1039/c4ra07886a,Double anions
mp-390,TiO2,True,False,2.0586,-3.508055451944444,[3.2],,10.1039/c4ra07943d,Double anions
mp-390,TiO2,True,False,2.0586,-3.508055451944444,[3.37],,10.1039/c4ra09405k,Double anions
mp-390,TiO2,True,False,2.0586,-3.508055451944444,[3.2],,10.1039/c4ra09533b,Double anions
mp-390,TiO2,True,False,2.0586,-3.508055451944444,[3.2],,10.1039/c4ra09582k,Double anions
mp-390,TiO2,True,False,2.0586,-3.508055451944444,[3.2],,10.1039/c4ra10316e,Double anions
mp-390,TiO2,True,False,2.0586,-3.508055451944444,[3.2],,10.1039/c4ra10766g,Double anions
mp-390,TiO2,True,False,2.0586,-3.508055451944444,[2.81],,10.1039/c4ra10766g,Double anions
mp-390,TiO2,True,False,2.0586,-3.508055451944444,[4.29],,10.1039/c4ra10766g,Double anions
mp-390,TiO2,True,False,2.0586,-3.508055451944444,[3.27],,10.1039/c4ra10766g,Double anions
mp-390,TiO2,True,False,2.0586,-3.508055451944444,[2.8],,10.1039/c4ra11920g,Double anions
mp-390,TiO2,True,False,2.0586,-3.508055451944444,[3.0],,10.1039/c4ra11920g,Double anions
mp-390,TiO2,True,False,2.0586,-3.508055451944444,[3.2],,10.1039/c4ra11920g,Double anions
mp-390,TiO2,True,False,2.0586,-3.508055451944444,[3.2],,10.1039/c4ra12434k,Double anions
mp-390,TiO2,True,False,2.0586,-3.508055451944444,[3.209],,10.1039/c4ra12671h,Double anions
mp-390,TiO2,True,False,2.0586,-3.508055451944444,[3.2],,10.1039/c4ra13464h,Double anions
mp-390,TiO2,True,False,2.0586,-3.508055451944444,[2.2],,10.1039/c4ra13464h,Double anions
mp-390,TiO2,True,False,2.0586,-3.508055451944444,[3.55],,10.1039/c4ra13596b,Double anions
mp-390,TiO2,True,False,2.0586,-3.508055451944444,[3.2],,10.1039/c4ra13942a,Double anions
mp-390,TiO2,True,False,2.0586,-3.508055451944444,[3.37],,10.1039/c4ra14463e,Double anions
mp-390,TiO2,True,False,2.0586,-3.508055451944444,[3.2],,10.1039/c4ra14722g,Double anions
mp-390,TiO2,True,False,2.0586,-3.508055451944444,[3.2],,10.1039/c4ra15566a,Double anions
mp-390,TiO2,True,False,2.0586,-3.508055451944444,[3.2],,10.1039/c4ra15593a,Double anions
mp-390,TiO2,True,False,2.0586,-3.508055451944444,[3.2],,10.1039/c4ra15615c,Double anions
mp-390,TiO2,True,False,2.0586,-3.508055451944444,[2.4],,10.1039/c4ra15615c,Double anions
mp-390,TiO2,True,False,2.0586,-3.508055451944444,[3.0],,10.1039/c4ra15820b,Double anions
mp-390,TiO2,True,False,2.0586,-3.508055451944444,[3.2],,10.1039/c4ra16217j,Double anions
mp-390,TiO2,True,False,2.0586,-3.508055451944444,[3.2],,10.1039/c4ta00941j,Double anions
mp-390,TiO2,True,False,2.0586,-3.508055451944444,[3.2],,10.1039/c4ta01567c,Double anions
mp-390,TiO2,True,False,2.0586,-3.508055451944444,[3.2],,10.1039/c4ta01922a,Double anions
mp-390,TiO2,True,False,2.0586,-3.508055451944444,[2.92],,10.1039/c4ta03309d,Double anions
mp-390,TiO2,True,False,2.0586,-3.508055451944444,[3.0],,10.1039/c4ta03334e,Double anions
mp-390,TiO2,True,False,2.0586,-3.508055451944444,[3.02],,10.1039/c4ta03445g,Double anions
mp-390,TiO2,True,False,2.0586,-3.508055451944444,[3.0],,10.1039/c4ta03676j,Double anions
mp-390,TiO2,True,False,2.0586,-3.508055451944444,[3.0],,10.1039/c4ta04046e,Double anions
mp-390,TiO2,True,False,2.0586,-3.508055451944444,[3.2],,10.1039/c4ta04046e,Double anions
mp-390,TiO2,True,False,2.0586,-3.508055451944444,[3.0],,10.1039/c4ta04182h,Double anions
mp-390,TiO2,True,False,2.0586,-3.508055451944444,[2.15],,10.1039/c4ta04254a,Double anions
mp-390,TiO2,True,False,2.0586,-3.508055451944444,[3.2],,10.1039/c4ta04874a,Double anions
mp-390,TiO2,True,False,2.0586,-3.508055451944444,[3.2],,10.1039/c4ta05419a,Double anions
mp-390,TiO2,True,False,2.0586,-3.508055451944444,[3.2],,10.1039/c4ta06674j,Double anions
mp-390,TiO2,True,False,2.0586,-3.508055451944444,[2.07],,10.1039/c4ta07068b,Double anions
mp-390,TiO2,True,False,2.0586,-3.508055451944444,[3.2],,10.1039/c4ta07213h,Double anions
mp-390,TiO2,True,False,2.0586,-3.508055451944444,[3.02],,10.1039/c4tc00911h,Double anions
mp-390,TiO2,True,False,2.0586,-3.508055451944444,[2.98],,10.1039/c4tc00911h,Double anions
mp-390,TiO2,True,False,2.0586,-3.508055451944444,[3.2],,10.1039/c5an00008d,Double anions
mp-390,TiO2,True,False,2.0586,-3.508055451944444,[3.2],,10.1039/c5ay02197a,Double anions
mp-390,TiO2,True,False,2.0586,-3.508055451944444,[3.0],,10.1039/c5cc09484d,Double anions
mp-390,TiO2,True,False,2.0586,-3.508055451944444,[3.2],,10.1039/c5ce00173k,Double anions
mp-390,TiO2,True,False,2.0586,-3.508055451944444,[3.1],,10.1039/c5ce02252e,Double anions
mp-390,TiO2,True,False,2.0586,-3.508055451944444,[3.0],,10.1039/c5ce02322j,Double anions
mp-390,TiO2,True,False,2.0586,-3.508055451944444,[3.2],,10.1039/c5cp00171d,Double anions
mp-390,TiO2,True,False,2.0586,-3.508055451944444,[3.2],,10.1039/c5cp00803d,Double anions
mp-390,TiO2,True,False,2.0586,-3.508055451944444,[3.2],,10.1039/c5cp01580d,Double anions
mp-390,TiO2,True,False,2.0586,-3.508055451944444,[1.85],,10.1039/c5cp02020d,Double anions
mp-390,TiO2,True,False,2.0586,-3.508055451944444,[3.2],,10.1039/c5cp02084k,Double anions
mp-390,TiO2,True,False,2.0586,-3.508055451944444,[3.2],,10.1039/c5cp02322j,Double anions
mp-390,TiO2,True,False,2.0586,-3.508055451944444,[3.07],,10.1039/c5cp02903a,Double anions
mp-390,TiO2,True,False,2.0586,-3.508055451944444,[0.14],,10.1039/c5cp04073f,Double anions
mp-390,TiO2,True,False,2.0586,-3.508055451944444,[0.51],,10.1039/c5cp04212g,Double anions
mp-390,TiO2,True,False,2.0586,-3.508055451944444,[3.2],,10.1039/c5cp04512f,Double anions
mp-390,TiO2,True,False,2.0586,-3.508055451944444,[3.2],,10.1039/c5cp05318h,Double anions
mp-390,TiO2,True,False,2.0586,-3.508055451944444,[3.2],,10.1039/c5cp05885f,Double anions
mp-390,TiO2,True,False,2.0586,-3.508055451944444,[3.2],,10.1039/c5cp06807j,Double anions
mp-390,TiO2,True,False,2.0586,-3.508055451944444,[3.03],,10.1039/c5cs00064e,Double anions
mp-390,TiO2,True,False,2.0586,-3.508055451944444,[3.01],,10.1039/c5cs00064e,Double anions
mp-390,TiO2,True,False,2.0586,-3.508055451944444,[1.6],,10.1039/c5cs00064e,Double anions
mp-390,TiO2,True,False,2.0586,-3.508055451944444,[3.2],,10.1039/c5cs00352k,Double anions
mp-390,TiO2,True,False,2.0586,-3.508055451944444,[0.2],,10.1039/c5cs00769k,Double anions
mp-390,TiO2,True,False,2.0586,-3.508055451944444,[3.2],,10.1039/c5cy00216h,Double anions
mp-390,TiO2,True,False,2.0586,-3.508055451944444,[3.2],,10.1039/c5cy00787a,Double anions
mp-390,TiO2,True,False,2.0586,-3.508055451944444,[3.2],,10.1039/c5cy00929d,Double anions
mp-390,TiO2,True,False,2.0586,-3.508055451944444,[3.2],,10.1039/c5cy01730k,Double anions
mp-390,TiO2,True,False,2.0586,-3.508055451944444,[3.2],,10.1039/c5dt01204j,Double anions
mp-390,TiO2,True,False,2.0586,-3.508055451944444,[3.2],,10.1039/c5dt01850a,Double anions
mp-390,TiO2,True,False,2.0586,-3.508055451944444,[3.09],,10.1039/c5dt01850a,Double anions
mp-390,TiO2,True,False,2.0586,-3.508055451944444,[2.85],,10.1039/c5dt01850a,Double anions
mp-390,TiO2,True,False,2.0586,-3.508055451944444,[3.2],,10.1039/c5dt02992a,Double anions
mp-390,TiO2,True,False,2.0586,-3.508055451944444,[3.2],,10.1039/c5dt03869c,Double anions
mp-390,TiO2,True,False,2.0586,-3.508055451944444,[3.2],,10.1039/c5fd00040h,Double anions
mp-390,TiO2,True,False,2.0586,-3.508055451944444,[3.2],,10.1039/c5nj00710k,Double anions
mp-390,TiO2,True,False,2.0586,-3.508055451944444,[3.1],,10.1039/c5nj00710k,Double anions
mp-390,TiO2,True,False,2.0586,-3.508055451944444,[3.2],,10.1039/c5nj01001b,Double anions
mp-390,TiO2,True,False,2.0586,-3.508055451944444,[3.2],,10.1039/c5nj01189b,Double anions
mp-390,TiO2,True,False,2.0586,-3.508055451944444,[3.12],,10.1039/c5nj01333j,Double anions
mp-390,TiO2,True,False,2.0586,-3.508055451944444,[3.03],,10.1039/c5nj02496j,Double anions
mp-390,TiO2,True,False,2.0586,-3.508055451944444,[3.07],,10.1039/c5nj02981c,Double anions
mp-390,TiO2,True,False,2.0586,-3.508055451944444,[3.2],,10.1039/c5nj03478g,Double anions
mp-390,TiO2,True,False,2.0586,-3.508055451944444,[2.5],,10.1039/c5nj03478g,Double anions
mp-390,TiO2,True,False,2.0586,-3.508055451944444,[0.08],,10.1039/c5nj03478g,Double anions
mp-390,TiO2,True,False,2.0586,-3.508055451944444,[3.2],,10.1039/c5nr00032g,Double anions
mp-390,TiO2,True,False,2.0586,-3.508055451944444,[1.54],,10.1039/c5nr00032g,Double anions
mp-390,TiO2,True,False,2.0586,-3.508055451944444,[3.2],,10.1039/c5nr02097b,Double anions
mp-390,TiO2,True,False,2.0586,-3.508055451944444,[2.97],,10.1039/c5nr02097b,Double anions
mp-390,TiO2,True,False,2.0586,-3.508055451944444,[3.2],,10.1039/c5nr02178b,Double anions
mp-390,TiO2,True,False,2.0586,-3.508055451944444,[3.2],,10.1039/c5nr02468d,Double anions
mp-390,TiO2,True,False,2.0586,-3.508055451944444,[2.8],,10.1039/c5nr02468d,Double anions
mp-390,TiO2,True,False,2.0586,-3.508055451944444,[0.6],,10.1039/c5nr03256c,Double anions
mp-390,TiO2,True,False,2.0586,-3.508055451944444,[3.2],,10.1039/c5nr03402g,Double anions
mp-390,TiO2,True,False,2.0586,-3.508055451944444,[3.15],,10.1039/c5nr03712c,Double anions
mp-390,TiO2,True,False,2.0586,-3.508055451944444,[3.2],,10.1039/c5nr03712c,Double anions
mp-390,TiO2,True,False,2.0586,-3.508055451944444,[3.3],,10.1039/c5nr04870b,Double anions
mp-390,TiO2,True,False,2.0586,-3.508055451944444,[2.0],,10.1039/c5nr05812k,Double anions
mp-390,TiO2,True,False,2.0586,-3.508055451944444,[3.2],,10.1039/c5nr06167a,Double anions
mp-390,TiO2,True,False,2.0586,-3.508055451944444,[3.0],,10.1039/c5pp00165j,Double anions
mp-390,TiO2,True,False,2.0586,-3.508055451944444,[3.1],,10.1039/c5pp00369e,Double anions
mp-390,TiO2,True,False,2.0586,-3.508055451944444,[2.9],,10.1039/c5pp00369e,Double anions
mp-390,TiO2,True,False,2.0586,-3.508055451944444,[3.1],,10.1039/c5qi00124b,Double anions
mp-390,TiO2,True,False,2.0586,-3.508055451944444,[3.25],,10.1039/c5ra02750k,Double anions
mp-390,TiO2,True,False,2.0586,-3.508055451944444,[3.2],,10.1039/c5ra03908h,Double anions
mp-390,TiO2,True,False,2.0586,-3.508055451944444,[3.2],,10.1039/c5ra04733a,Double anions
mp-390,TiO2,True,False,2.0586,-3.508055451944444,[3.2],,10.1039/c5ra05367f,Double anions
mp-390,TiO2,True,False,2.0586,-3.508055451944444,[1.85],,10.1039/c5ra05367f,Double anions
mp-390,TiO2,True,False,2.0586,-3.508055451944444,[3.1],,10.1039/c5ra06148b,Double anions
mp-390,TiO2,True,False,2.0586,-3.508055451944444,[3.17],,10.1039/c5ra06477e,Double anions
mp-390,TiO2,True,False,2.0586,-3.508055451944444,[3.15],,10.1039/c5ra06922j,Double anions
mp-390,TiO2,True,False,2.0586,-3.508055451944444,[3.2],,10.1039/c5ra07518a,Double anions
mp-390,TiO2,True,False,2.0586,-3.508055451944444,[3.2],,10.1039/c5ra07620j,Double anions
mp-390,TiO2,True,False,2.0586,-3.508055451944444,[3.2],,10.1039/c5ra08802j,Double anions
mp-390,TiO2,True,False,2.0586,-3.508055451944444,[3.0],,10.1039/c5ra08885b,Double anions
mp-390,TiO2,True,False,2.0586,-3.508055451944444,[3.2],,10.1039/c5ra08919k,Double anions
mp-390,TiO2,True,False,2.0586,-3.508055451944444,[3.2],,10.1039/c5ra09785a,Double anions
mp-390,TiO2,True,False,2.0586,-3.508055451944444,[2.94],,10.1039/c5ra10399a,Double anions
mp-390,TiO2,True,False,2.0586,-3.508055451944444,[2.4],,10.1039/c5ra10454h,Double anions
mp-390,TiO2,True,False,2.0586,-3.508055451944444,[3.0],,10.1039/c5ra11464k,Double anions
mp-390,TiO2,True,False,2.0586,-3.508055451944444,[3.2],,10.1039/c5ra11948k,Double anions
mp-390,TiO2,True,False,2.0586,-3.508055451944444,[3.2],,10.1039/c5ra13171e,Double anions
mp-390,TiO2,True,False,2.0586,-3.508055451944444,[3.2],,10.1039/c5ra13438b,Double anions
mp-390,TiO2,True,False,2.0586,-3.508055451944444,[3.24],,10.1039/c5ra14613e,Double anions
mp-390,TiO2,True,False,2.0586,-3.508055451944444,[3.2],,10.1039/c5ra15417k,Double anions
mp-390,TiO2,True,False,2.0586,-3.508055451944444,[3.2],,10.1039/c5ra15758g,Double anions
mp-390,TiO2,True,False,2.0586,-3.508055451944444,[3.1],,10.1039/c5ra15815j,Double anions
mp-390,TiO2,True,False,2.0586,-3.508055451944444,[3.21],,10.1039/c5ra16466d,Double anions
mp-390,TiO2,True,False,2.0586,-3.508055451944444,[3.2],,10.1039/c5ra17098b,Double anions
mp-390,TiO2,True,False,2.0586,-3.508055451944444,[3.0],,10.1039/c5ra17894k,Double anions
mp-390,TiO2,True,False,2.0586,-3.508055451944444,[3.2],,10.1039/c5ra17967j,Double anions
mp-390,TiO2,True,False,2.0586,-3.508055451944444,[3.2],,10.1039/c5ra18302b,Double anions
mp-390,TiO2,True,False,2.0586,-3.508055451944444,[3.2],,10.1039/c5ra18330h,Double anions
mp-390,TiO2,True,False,2.0586,-3.508055451944444,[3.2],,10.1039/c5ra19353b,Double anions
mp-390,TiO2,True,False,2.0586,-3.508055451944444,[3.1],,10.1039/c5ra19353b,Double anions
mp-390,TiO2,True,False,2.0586,-3.508055451944444,[3.24],,10.1039/c5ra20888b,Double anions
mp-390,TiO2,True,False,2.0586,-3.508055451944444,[2.5],,10.1039/c5ra21176j,Double anions
mp-390,TiO2,True,False,2.0586,-3.508055451944444,[3.2],,10.1039/c5ra21359b,Double anions
mp-390,TiO2,True,False,2.0586,-3.508055451944444,[3.2],,10.1039/c5ra22964b,Double anions
mp-390,TiO2,True,False,2.0586,-3.508055451944444,[3.3],,10.1039/c5ra23384d,Double anions
mp-390,TiO2,True,False,2.0586,-3.508055451944444,[3.2],,10.1039/c5ra24126j,Double anions
mp-390,TiO2,True,False,2.0586,-3.508055451944444,[3.0],,10.1039/c5ra26096e,Double anions
mp-390,TiO2,True,False,2.0586,-3.508055451944444,[3.2],,10.1039/c5ra26646g,Double anions
mp-390,TiO2,True,False,2.0586,-3.508055451944444,[4.1],,10.1039/c5ra27328e,Double anions
mp-390,TiO2,True,False,2.0586,-3.508055451944444,[3.2],,10.1039/c5ra27569e,Double anions
mp-390,TiO2,True,False,2.0586,-3.508055451944444,[3.2],,10.1039/c5sc01813g,Double anions
mp-390,TiO2,True,False,2.0586,-3.508055451944444,[2.85],,10.1039/c5ta00444f,Double anions
mp-390,TiO2,True,False,2.0586,-3.508055451944444,[3.2],,10.1039/c5ta00763a,Double anions
mp-390,TiO2,True,False,2.0586,-3.508055451944444,[3.05],,10.1039/c5ta01087j,Double anions
mp-390,TiO2,True,False,2.0586,-3.508055451944444,[3.32],,10.1039/c5ta01592h,Double anions
mp-390,TiO2,True,False,2.0586,-3.508055451944444,[3.2],,10.1039/c5ta02269j,Double anions
mp-390,TiO2,True,False,2.0586,-3.508055451944444,[1.0],,10.1039/c5ta02396c,Double anions
mp-390,TiO2,True,False,2.0586,-3.508055451944444,[3.2],,10.1039/c5ta02396c,Double anions
mp-390,TiO2,True,False,2.0586,-3.508055451944444,[3.2],,10.1039/c5ta02556g,Double anions
mp-390,TiO2,True,False,2.0586,-3.508055451944444,[3.2],,10.1039/c5ta03214h,Double anions
mp-390,TiO2,True,False,2.0586,-3.508055451944444,[3.2],,10.1039/c5ta03229f,Double anions
mp-390,TiO2,True,False,2.0586,-3.508055451944444,[3.2],,10.1039/c5ta03424h,Double anions
mp-390,TiO2,True,False,2.0586,-3.508055451944444,[2.1],,10.1039/c5ta04137f,Double anions
mp-390,TiO2,True,False,2.0586,-3.508055451944444,[3.16],,10.1039/c5ta04393j,Double anions
mp-390,TiO2,True,False,2.0586,-3.508055451944444,[3.2],,10.1039/c5ta04649a,Double anions
mp-390,TiO2,True,False,2.0586,-3.508055451944444,[3.2],,10.1039/c5ta05426e,Double anions
mp-390,TiO2,True,False,2.0586,-3.508055451944444,[3.4],,10.1039/c5ta05426e,Double anions
mp-390,TiO2,True,False,2.0586,-3.508055451944444,[3.2],,10.1039/c5ta05654c,Double anions
mp-390,TiO2,True,False,2.0586,-3.508055451944444,[0.3],,10.1039/c5ta05904f,Double anions
mp-390,TiO2,True,False,2.0586,-3.508055451944444,[3.2],,10.1039/c5ta06758h,Double anions
mp-390,TiO2,True,False,2.0586,-3.508055451944444,[1.54],,10.1039/c5ta07133j,Double anions
mp-390,TiO2,True,False,2.0586,-3.508055451944444,[3.3],,10.1039/c5ta07133j,Double anions
mp-390,TiO2,True,False,2.0586,-3.508055451944444,[2.55],,10.1039/c5ta07133j,Double anions
mp-390,TiO2,True,False,2.0586,-3.508055451944444,[2.7],,10.1039/c5ta07374j,Double anions
mp-390,TiO2,True,False,2.0586,-3.508055451944444,[3.2],,10.1039/c5ta07719b,Double anions
mp-390,TiO2,True,False,2.0586,-3.508055451944444,[3.6],,10.1039/c5ta08250a,Double anions
mp-390,TiO2,True,False,2.0586,-3.508055451944444,[3.2],,10.1039/c5ta09919f,Double anions
mp-390,TiO2,True,False,2.0586,-3.508055451944444,[3.1],,10.1039/c5ta09919f,Double anions
mp-390,TiO2,True,False,2.0586,-3.508055451944444,[3.2],,10.1039/c5tc01061f,Double anions
mp-390,TiO2,True,False,2.0586,-3.508055451944444,[3.2],,10.1039/c6ce00015k,Double anions
mp-390,TiO2,True,False,2.0586,-3.508055451944444,[2.729],,10.1039/c6ce00117c,Double anions
mp-390,TiO2,True,False,2.0586,-3.508055451944444,[3.0],,10.1039/c6ce00117c,Double anions
mp-390,TiO2,True,False,2.0586,-3.508055451944444,[3.0],,10.1039/c6ce00306k,Double anions
mp-390,TiO2,True,False,2.0586,-3.508055451944444,[3.2],,10.1039/c6ce01646d,Double anions
mp-390,TiO2,True,False,2.0586,-3.508055451944444,[3.1],,10.1039/c6ce02417c,Double anions
mp-390,TiO2,True,False,2.0586,-3.508055451944444,[0.5],,10.1039/c6cp00912c,Double anions
mp-390,TiO2,True,False,2.0586,-3.508055451944444,[2.3],,10.1039/c6cp02671k,Double anions
mp-390,TiO2,True,False,2.0586,-3.508055451944444,[5.5],,10.1039/c6cp03168d,Double anions
mp-390,TiO2,True,False,2.0586,-3.508055451944444,[3.2],,10.1039/c6cp06536h,Double anions
mp-390,TiO2,True,False,2.0586,-3.508055451944444,[2.6],,10.1039/c6cs00776g,Double anions
mp-390,TiO2,True,False,2.0586,-3.508055451944444,[3.2],,10.1039/c6cs00918b,Double anions
mp-390,TiO2,True,False,2.0586,-3.508055451944444,[3.0],,10.1039/c6cs00918b,Double anions
mp-390,TiO2,True,False,2.0586,-3.508055451944444,[3.0],,10.1039/c6cy00296j,Double anions
mp-390,TiO2,True,False,2.0586,-3.508055451944444,[3.24],,10.1039/c6cy00466k,Double anions
mp-390,TiO2,True,False,2.0586,-3.508055451944444,[3.13],,10.1039/c6cy01770c,Double anions
mp-390,TiO2,True,False,2.0586,-3.508055451944444,[3.27],,10.1039/c6cy02224c,Double anions
mp-390,TiO2,True,False,2.0586,-3.508055451944444,[1.25],,10.1039/c6cy02224c,Double anions
mp-390,TiO2,True,False,2.0586,-3.508055451944444,[0.53],,10.1039/c6cy02224c,Double anions
mp-390,TiO2,True,False,2.0586,-3.508055451944444,[0.3],,10.1039/c6cy02224c,Double anions
mp-390,TiO2,True,False,2.0586,-3.508055451944444,[3.2],,10.1039/c6dt00632a,Double anions
mp-390,TiO2,True,False,2.0586,-3.508055451944444,[3.2],,10.1039/c6dt02584f,Double anions
mp-390,TiO2,True,False,2.0586,-3.508055451944444,[2.76],,10.1039/c6dt02584f,Double anions
mp-390,TiO2,True,False,2.0586,-3.508055451944444,[3.18],,10.1039/c6dt02584f,Double anions
mp-390,TiO2,True,False,2.0586,-3.508055451944444,[3.1],,10.1039/c6dt03887e,Double anions
mp-390,TiO2,True,False,2.0586,-3.508055451944444,[3.11],,10.1039/c6ee01092j,Double anions
mp-390,TiO2,True,False,2.0586,-3.508055451944444,[3.13],,10.1039/c6ee01092j,Double anions
mp-390,TiO2,True,False,2.0586,-3.508055451944444,[3.2],,10.1039/c6ee02732f,Double anions
mp-390,TiO2,True,False,2.0586,-3.508055451944444,[3.2],,10.1039/c6en00415f,Double anions
mp-390,TiO2,True,False,2.0586,-3.508055451944444,[3.28],,10.1039/c6en00415f,Double anions
mp-390,TiO2,True,False,2.0586,-3.508055451944444,[3.2],,10.1039/c6en00478d,Double anions
mp-390,TiO2,True,False,2.0586,-3.508055451944444,[3.2],,10.1039/c6en00706f,Double anions
mp-390,TiO2,True,False,2.0586,-3.508055451944444,[3.05],,10.1039/c6gc02825j,Double anions
mp-390,TiO2,True,False,2.0586,-3.508055451944444,[0.3],,10.1039/c6gc02825j,Double anions
mp-390,TiO2,True,False,2.0586,-3.508055451944444,[1.8],,10.1039/c6gc02825j,Double anions
mp-390,TiO2,True,False,2.0586,-3.508055451944444,[1.6],,10.1039/c6mh00469e,Double anions
mp-390,TiO2,True,False,2.0586,-3.508055451944444,[1.74],,10.1039/c6nj02241c,Double anions
mp-390,TiO2,True,False,2.0586,-3.508055451944444,[3.2],,10.1039/c6nj02400a,Double anions
mp-390,TiO2,True,False,2.0586,-3.508055451944444,[3.2],,10.1039/c6nj02493a,Double anions