mpids,formula,is_stable,theoretical,band_gap,formation_energy_per_atom,Value,Temperature_raw_value,DOI,compound_type
mp-7048,Al2O3,False,False,4.4553,-3.409391490000001,[8.8],,10.1016/j.tsf.2016.09.026,Double anions
mp-7048,Al2O3,False,False,4.4553,-3.409391490000001,[5.3],,10.1016/j.tsf.2017.04.041,Double anions
mp-7048,Al2O3,False,False,4.4553,-3.409391490000001,[8.5],,10.1016/j.tsf.2017.07.031,Double anions
mp-7048,Al2O3,False,False,4.4553,-3.409391490000001,[8.8],,10.1016/j.tsf.2018.02.010,Double anions
mp-7048,Al2O3,False,False,4.4553,-3.409391490000001,[5.3],,10.1016/j.tsf.2019.05.024,Double anions
mp-7048,Al2O3,False,False,4.4553,-3.409391490000001,[9.0],,10.1016/S0040-6090(03)01175-1,Double anions
mp-7048,Al2O3,False,False,4.4553,-3.409391490000001,[4.5],,10.1016/j.electacta.2015.08.068,Double anions
mp-7048,Al2O3,False,False,4.4553,-3.409391490000001,[8.8],,10.1016/j.elspec.2016.08.001,Double anions
mp-7048,Al2O3,False,False,4.4553,-3.409391490000001,[8.8],,10.1016/j.matchemphys.2018.03.093,Double anions
mp-7048,Al2O3,False,False,4.4553,-3.409391490000001,[6.06],,10.1016/j.matchemphys.2018.03.093,Double anions
mp-7048,Al2O3,False,False,4.4553,-3.409391490000001,[6.62],,10.1016/j.md.2018.06.001,Double anions
mp-7048,Al2O3,False,False,4.4553,-3.409391490000001,[8.8],,10.1039/b822848e,Double anions
mp-7048,Al2O3,False,False,4.4553,-3.409391490000001,[6.4],,10.1039/c0jm00662a,Double anions
mp-7048,Al2O3,False,False,4.4553,-3.409391490000001,[7.0],,10.1039/c2jm32589f,Double anions
mp-7048,Al2O3,False,False,4.4553,-3.409391490000001,[8.0],,10.1039/c3gc40450a,Double anions
mp-7048,Al2O3,False,False,4.4553,-3.409391490000001,[8.8],,10.1039/c3ra45069d,Double anions
mp-7048,Al2O3,False,False,4.4553,-3.409391490000001,[3.0],,10.1039/c4ta05671j,Double anions
mp-7048,Al2O3,False,False,4.4553,-3.409391490000001,[6.1],,10.1039/c5ee02484f,Double anions
mp-7048,Al2O3,False,False,4.4553,-3.409391490000001,[7.7],,10.1039/c5nr08065g,Double anions
mp-7048,Al2O3,False,False,4.4553,-3.409391490000001,[9.0],,10.1039/c5ra01800e,Double anions
mp-7048,Al2O3,False,False,4.4553,-3.409391490000001,[6.2],,10.1039/c6ra27271a,Double anions
mp-7048,Al2O3,False,False,4.4553,-3.409391490000001,[9.0],,10.1039/c8nr06694a,Double anions
mp-7048,Al2O3,False,False,4.4553,-3.409391490000001,[8.7],,10.1039/c9nr03395e,Double anions
mp-7048,Al2O3,False,False,4.4553,-3.409391490000001,[3.45],,10.1039/c9ra09646a,Double anions
mp-7048,Al2O3,False,False,4.4553,-3.409391490000001,[8.0],,10.1039/c9ta13275a,Double anions
mp-7048,Al2O3,False,False,4.4553,-3.409391490000001,[8.7],,10.1039/c9tc00401g,Double anions
mp-7048,Al2O3,False,False,4.4553,-3.409391490000001,[5.99],,10.1039/d0ra01073a,Double anions
mp-7048,Al2O3,False,False,4.4553,-3.409391490000001,[8.8],,10.1039/b822903a,Double anions
mp-7048,Al2O3,False,False,4.4553,-3.409391490000001,[8.0],,10.1039/c2cc16715h,Double anions
mp-7048,Al2O3,False,False,4.4553,-3.409391490000001,[8.8],,10.1039/c3nr03624c,Double anions
mp-7048,Al2O3,False,False,4.4553,-3.409391490000001,[8.0],,10.1039/c4cp02325k,Double anions
mp-7048,Al2O3,False,False,4.4553,-3.409391490000001,[8.9],,10.1039/c4nr06417h,Double anions
mp-7048,Al2O3,False,False,4.4553,-3.409391490000001,[5.49],,10.1039/c4ta02663b,Double anions
mp-7048,Al2O3,False,False,4.4553,-3.409391490000001,[6.4],,10.1039/c5ra16156h,Double anions
mp-7048,Al2O3,False,False,4.4553,-3.409391490000001,[5.95],,10.1039/c6ra20050h,Double anions
mp-7048,Al2O3,False,False,4.4553,-3.409391490000001,[8.8],,10.1039/c6ra20050h,Double anions
mp-7048,Al2O3,False,False,4.4553,-3.409391490000001,[5.75],,10.1039/c6ta06987h,Double anions
mp-7048,Al2O3,False,False,4.4553,-3.409391490000001,[0.27],,10.1039/c7nr00631d,Double anions
mp-7048,Al2O3,False,False,4.4553,-3.409391490000001,[8.0],,10.1039/c9tc03933c,Double anions
mp-7048,Al2O3,False,False,4.4553,-3.409391490000001,[6.3],,10.1039/c8ra03437k,Double anions
mp-7048,Al2O3,False,False,4.4553,-3.409391490000001,[8.9],,10.1039/d0tc01204a,Double anions
mp-7048,Al2O3,False,False,4.4553,-3.409391490000001,[8.0],,10.1039/c4cp05843g,Double anions
mp-7048,Al2O3,False,False,4.4553,-3.409391490000001,[8.8],,10.1039/c6nj01076h,Double anions
mp-7048,Al2O3,False,False,4.4553,-3.409391490000001,[5.4],,10.1039/c6ta01016d,Double anions
mp-7048,Al2O3,False,False,4.4553,-3.409391490000001,[7.6],,10.1039/c9se00206e,Double anions
mp-7048,Al2O3,False,False,4.4553,-3.409391490000001,[8.8],,10.1039/d0tc01876g,Double anions
mp-7048,Al2O3,False,False,4.4553,-3.409391490000001,[8.0],,10.1039/c0jm02753g,Double anions
mp-7048,Al2O3,False,False,4.4553,-3.409391490000001,[6.41],,10.1039/c1jm11825k,Double anions
mp-7048,Al2O3,False,False,4.4553,-3.409391490000001,[9.0],,10.1039/b201385c,Double anions
mp-7048,Al2O3,False,False,4.4553,-3.409391490000001,[9.0],,10.1039/b405776g,Double anions
mp-7048,Al2O3,False,False,4.4553,-3.409391490000001,[8.8],,10.1039/c5cc01015b,Double anions
mp-7048,Al2O3,False,False,4.4553,-3.409391490000001,[8.7],,10.1039/c5nj00947b,Double anions
mp-7048,Al2O3,False,False,4.4553,-3.409391490000001,[3.3],,10.1039/c9nr05658k,Double anions
mp-7048,Al2O3,False,False,4.4553,-3.409391490000001,[8.0],,10.1007/s10825-019-01316-4,Double anions
mp-7048,Al2O3,False,False,4.4553,-3.409391490000001,[8.8],,10.1007/s10853-020-04965-0,Double anions
mp-7048,Al2O3,False,False,4.4553,-3.409391490000001,[8.7],,10.1007/s10854-015-3794-5,Double anions
mp-7048,Al2O3,False,False,4.4553,-3.409391490000001,[3.5],,10.1007/s10971-010-2348-9,Double anions
mp-7048,Al2O3,False,False,4.4553,-3.409391490000001,[6.5],,10.1038/s41598-019-46752-1,Double anions
mp-7048,Al2O3,False,False,4.4553,-3.409391490000001,[1.82],,10.1186/s11671-015-0990-4,Double anions
mp-7048,Al2O3,False,False,4.4553,-3.409391490000001,[6.0],,10.1007/s10854-018-0349-6,Double anions
mp-7048,Al2O3,False,False,4.4553,-3.409391490000001,[4.15],,10.1007/s10904-020-01469-x,Double anions
mp-7048,Al2O3,False,False,4.4553,-3.409391490000001,[8.6],,10.1007/s10967-014-3295-7,Double anions
mp-7048,Al2O3,False,False,4.4553,-3.409391490000001,[9.0],,10.1007/s12034-017-1443-8,Double anions
mp-7048,Al2O3,False,False,4.4553,-3.409391490000001,[8.7],,10.1038/s41467-018-03885-7,Double anions
mp-7048,Al2O3,False,False,4.4553,-3.409391490000001,[5.99],1100,10.1038/srep29221,Double anions
mp-7048,Al2O3,False,False,4.4553,-3.409391490000001,[5.99],,10.1038/srep29221,Double anions
mp-7048,Al2O3,False,False,4.4553,-3.409391490000001,[5.7],,10.1038/srep29221,Double anions
mp-7048,Al2O3,False,False,4.4553,-3.409391490000001,[0.18],,10.1038/srep29221,Double anions
mp-7048,Al2O3,False,False,4.4553,-3.409391490000001,[8.8],,10.1186/s11671-015-0842-2,Double anions
mp-7048,Al2O3,False,False,4.4553,-3.409391490000001,[9.0],"1,000",10.1007/s00339-014-8395-2,Double anions
mp-7048,Al2O3,False,False,4.4553,-3.409391490000001,[8.8],,10.1007/s00339-014-8579-9,Double anions
mp-7048,Al2O3,False,False,4.4553,-3.409391490000001,[3.6],,10.1007/s10853-009-3444-5,Double anions
mp-7048,Al2O3,False,False,4.4553,-3.409391490000001,[3.02],,10.1007/s10853-020-04483-z,Double anions
mp-7048,Al2O3,False,False,4.4553,-3.409391490000001,[8.9],,10.1007/s10971-014-3400-y,Double anions
mp-7048,Al2O3,False,False,4.4553,-3.409391490000001,[7.0],,10.1007/s11051-020-04786-x,Double anions
mp-7048,Al2O3,False,False,4.4553,-3.409391490000001,[6.2],,10.1007/s42341-018-0058-0,Double anions
mp-7048,Al2O3,False,False,4.4553,-3.409391490000001,[8.8],,10.1007/s00339-012-6881-y,Double anions
mp-7048,Al2O3,False,False,4.4553,-3.409391490000001,[2.1],,10.1007/s10854-006-0007-2,Double anions
mp-7048,Al2O3,False,False,4.4553,-3.409391490000001,[6.9],,10.1007/s10854-015-2926-2,Double anions
mp-7048,Al2O3,False,False,4.4553,-3.409391490000001,[9.0],,10.1007/s10854-018-9751-3,Double anions
mp-7048,Al2O3,False,False,4.4553,-3.409391490000001,[3.8],,10.1007/s10854-019-01822-y,Double anions
mp-7048,Al2O3,False,False,4.4553,-3.409391490000001,[6.67],,10.1007/s10854-019-02300-1,Double anions
mp-7048,Al2O3,False,False,4.4553,-3.409391490000001,[5.65],,10.1007/s10854-019-02679-x,Double anions
mp-7048,Al2O3,False,False,4.4553,-3.409391490000001,[4.38],,10.1007/s10895-019-02414-z,Double anions
mp-7048,Al2O3,False,False,4.4553,-3.409391490000001,[9.0],,10.1007/s10948-020-05472-8,Double anions
mp-7048,Al2O3,False,False,4.4553,-3.409391490000001,[4.06],,10.1007/s12043-017-1396-x,Double anions
mp-7048,Al2O3,False,False,4.4553,-3.409391490000001,[8.9],,10.1007/s13204-011-0033-0,Double anions
mp-7048,Al2O3,False,False,4.4553,-3.409391490000001,[6.8],,10.1186/1556-276X-7-143,Double anions
mp-7048,Al2O3,False,False,4.4553,-3.409391490000001,[6.8],,10.1186/s11671-017-2131-8,Double anions
mp-7048,Al2O3,False,False,4.4553,-3.409391490000001,[9.0],,10.1007/s00339-014-8765-9,Double anions
mp-7048,Al2O3,False,False,4.4553,-3.409391490000001,[3.0],,10.1007/s10800-009-0039-4,Double anions
mp-7048,Al2O3,False,False,4.4553,-3.409391490000001,[8.7],,10.1007/s10853-016-0337-2,Double anions
mp-7048,Al2O3,False,False,4.4553,-3.409391490000001,[2.87],,10.1007/s10854-013-1184-4,Double anions
mp-7048,Al2O3,False,False,4.4553,-3.409391490000001,[9.0],,10.1007/s10971-016-4205-y,Double anions
mp-7048,Al2O3,False,False,4.4553,-3.409391490000001,[6.9],,10.1007/s10971-016-4205-y,Double anions
mp-7048,Al2O3,False,False,4.4553,-3.409391490000001,[3.7],,10.1007/s11051-010-9883-8,Double anions
mp-7048,Al2O3,False,False,4.4553,-3.409391490000001,[8.7],,10.1007/s13204-014-0298-1,Double anions
mp-7048,Al2O3,False,False,4.4553,-3.409391490000001,[3.6],,10.1007/s40195-017-0682-4,Double anions
mp-7048,Al2O3,False,False,4.4553,-3.409391490000001,[6.0],,10.1038/am.2015.57,Double anions
mp-7048,Al2O3,False,False,4.4553,-3.409391490000001,[8.0],,10.1038/ncomms2394,Double anions
mp-7048,Al2O3,False,False,4.4553,-3.409391490000001,[8.9],,10.1038/s41598-017-14649-6,Double anions
mp-7048,Al2O3,False,False,4.4553,-3.409391490000001,[9.0],,10.1038/srep02737,Double anions
mp-7048,Al2O3,False,False,4.4553,-3.409391490000001,[8.8],,10.1038/srep13475,Double anions
mp-7048,Al2O3,False,False,4.4553,-3.409391490000001,[1.95],,10.1186/1556-276X-8-273,Double anions
mp-7048,Al2O3,False,False,4.4553,-3.409391490000001,[5.55],,10.1186/s11671-017-2173-y,Double anions
mp-7048,Al2O3,False,False,4.4553,-3.409391490000001,[8.7],,10.1186/s11671-019-2907-0,Double anions
mp-7048,Al2O3,False,False,4.4553,-3.409391490000001,[9.0],1000,10.1007/s00339-016-0165-x,Double anions
mp-7048,Al2O3,False,False,4.4553,-3.409391490000001,[3.5],,10.1007/s00339-016-0165-x,Double anions
mp-7048,Al2O3,False,False,4.4553,-3.409391490000001,[6.2],,10.1007/s00339-019-3070-2,Double anions
mp-7048,Al2O3,False,False,4.4553,-3.409391490000001,[3.0],,10.1007/s10562-019-02902-8,Double anions
mp-7048,Al2O3,False,False,4.4553,-3.409391490000001,[9.0],,10.1007/s10825-016-0916-0,Double anions
mp-7048,Al2O3,False,False,4.4553,-3.409391490000001,[3.87],,10.1007/s10854-019-02185-0,Double anions
mp-7048,Al2O3,False,False,4.4553,-3.409391490000001,[1.79],300,10.1007/s10854-019-02185-0,Double anions
mp-7048,Al2O3,False,False,4.4553,-3.409391490000001,[9.0],,10.1007/s13204-012-0120-x,Double anions
mp-7048,Al2O3,False,False,4.4553,-3.409391490000001,[6.8],,10.1186/s11671-016-1822-x,Double anions
mp-7048,Al2O3,False,False,4.4553,-3.409391490000001,[7.3],,10.1016/S0925-8388(99)00422-3,Double anions
mp-7048,Al2O3,False,False,4.4553,-3.409391490000001,[7.0],,10.1021/jacs.5b03986,Double anions
mp-7048,Al2O3,False,False,4.4553,-3.409391490000001,[7.3],,10.1021/jacs.5b03986,Double anions
mp-6564,Sr2MgSi2O7,True,False,4.495900000000001,-3.398849896666666,[4.24],,10.1039/c6cp07391c,Double anions
mp-6564,Sr2MgSi2O7,True,False,4.495900000000001,-3.398849896666666,[3.171],,10.1007/s10854-018-0392-3,Double anions
mp-6564,Sr2MgSi2O7,True,False,4.495900000000001,-3.398849896666666,[3.75],,10.1007/s10854-018-0392-3,Double anions
mp-4547,La2TeO2,True,False,2.028699999999999,-3.386965779333334,[2.5],,10.1039/c8tc05917a,Double anions
mp-541600,RbLaTa2O7,False,False,2.2853,-3.382045553833332,[3.3],,10.1016/j.jece.2018.11.034,Double anions
mp-541600,RbLaTa2O7,False,False,2.2853,-3.382045553833332,[4.32],,10.1039/d0cc03466e,Double anions
mp-1103397,BaSnF4,True,False,3.6599,-3.379662983333332,[2.5],,10.1007/s00339-013-7767-3,Halides
mp-1223975,K2Nd2Ti3O10,False,True,2.2681,-3.379147885264707,[3.25],,10.1016/j.jssc.2004.08.043,Double anions
mp-3281,Al5BO9,True,False,4.9385,-3.366610787277777,[6.4],,10.1021/jacs.6b06680,Oxides
mp-1211763,KGdTiO4,False,True,2.1484,-3.364131046154763,[3.04],,10.1039/c3tc32472a,Oxides
mp-556066,Sr2LiSiO4F,False,False,4.7908,-3.363948581759259,[6.87],,10.1039/c8ra08344d,Double anions
mp-9338,Ba2MgSi2O7,True,False,4.4529,-3.363647231666667,[7.48],,10.1016/j.optmat.2015.02.024,Double anions
mp-9338,Ba2MgSi2O7,True,False,4.4529,-3.363647231666667,[7.4],,10.1016/j.optmat.2015.02.024,Double anions
mp-3771,MgTiO3,True,False,3.529499999999999,-3.362936645666665,[3.7],,10.1039/c3cc43435d,Oxides
mp-3771,MgTiO3,True,False,3.529499999999999,-3.362936645666665,[3.7],,10.1039/c7ee03503a,Oxides
mp-530164,MgAl2O4,False,True,4.5747,-3.362630751071422,[7.4],,10.1016/j.physb.2012.03.075,Double anions
mp-530164,MgAl2O4,False,True,4.5747,-3.362630751071422,[7.8],,10.1016/j.physb.2012.03.075,Double anions
mp-530164,MgAl2O4,False,True,4.5747,-3.362630751071422,[5.8],,10.1016/j.physb.2016.02.012,Double anions
mp-530164,MgAl2O4,False,True,4.5747,-3.362630751071422,[5.1],,10.1016/j.rinp.2017.09.019,Double anions
mp-530164,MgAl2O4,False,True,4.5747,-3.362630751071422,[7.8],,10.1016/j.tsf.2007.02.012,Double anions
mp-530164,MgAl2O4,False,True,4.5747,-3.362630751071422,[7.505],,10.1039/c7qi00478h,Double anions
mp-530164,MgAl2O4,False,True,4.5747,-3.362630751071422,[3.9],,10.1039/c7qi00478h,Double anions
mp-530164,MgAl2O4,False,True,4.5747,-3.362630751071422,[2.85],,10.1007/s10854-015-3907-1,Double anions
mp-17612,Ba2SiO4,True,False,4.6319,-3.361976853214285,[3.04],,10.1016/j.optmat.2018.07.021,Double anions
mp-17612,Ba2SiO4,True,False,4.6319,-3.361976853214285,[5.481],,10.1039/c8tc01722k,Double anions
mp-1237135,Y6MoO12,False,True,2.1663,-3.360715905263158,[3.05],,10.1016/j.optmat.2016.09.026,Double anions
mp-1237135,Y6MoO12,False,True,2.1663,-3.360715905263158,[3.05],,10.1016/j.optmat.2019.02.021,Double anions
mp-1237135,Y6MoO12,False,True,2.1663,-3.360715905263158,[2.27],,10.1039/c0jm03656k,Double anions
mp-1237135,Y6MoO12,False,True,2.1663,-3.360715905263158,[1.1],,10.1039/c0jm03656k,Double anions
mp-695817,ScF3,False,True,1.803799999999999,-3.355748293125001,[1.88],,10.1039/c4cs00461b,Halides
mp-695817,ScF3,False,True,1.803799999999999,-3.355748293125001,[6.075],,10.1039/c4nr00512k,Halides
mp-4200,ScPO4,True,False,4.193899999999999,-3.354315457440474,[4.4],,10.1016/j.cej.2016.11.136,Chalcogenides
mp-4200,ScPO4,True,False,4.193899999999999,-3.354315457440474,[4.11],,10.1039/c9tc01385g,Chalcogenides
mp-8065,K2Ti6O13,True,False,2.7535,-3.347455425690477,[3.45],,10.1007/s11581-016-1647-8,Double anions
mp-10390,Ta2O5,True,False,1.2267,-3.346563131380951,[4.0],,10.1016/j.cej.2019.03.029,Double anions
mp-10390,Ta2O5,True,False,1.2267,-3.346563131380951,[2.5],,10.1016/j.matpr.2020.05.740,Double anions
mp-10390,Ta2O5,True,False,1.2267,-3.346563131380951,[3.17],,10.1016/j.matpr.2020.05.740,Double anions
mp-10390,Ta2O5,True,False,1.2267,-3.346563131380951,[2.74],,10.1016/j.matpr.2020.05.740,Double anions
mp-10390,Ta2O5,True,False,1.2267,-3.346563131380951,[4.66],,10.1016/j.optmat.2019.109404,Double anions
mp-10390,Ta2O5,True,False,1.2267,-3.346563131380951,[4.5],,10.1016/j.tsf.2005.08.320,Double anions
mp-10390,Ta2O5,True,False,1.2267,-3.346563131380951,[4.0],,10.1016/j.tsf.2006.01.060,Double anions
mp-10390,Ta2O5,True,False,1.2267,-3.346563131380951,[4.5],700,10.1016/j.tsf.2011.01.239,Double anions
mp-10390,Ta2O5,True,False,1.2267,-3.346563131380951,[4.4],,10.1016/j.tsf.2011.02.008,Double anions
mp-10390,Ta2O5,True,False,1.2267,-3.346563131380951,[4.5],,10.1016/j.tsf.2013.03.103,Double anions
mp-10390,Ta2O5,True,False,1.2267,-3.346563131380951,[4.0],,10.1016/j.tsf.2014.07.033,Double anions
mp-10390,Ta2O5,True,False,1.2267,-3.346563131380951,[4.3],,10.1016/j.tsf.2015.02.074,Double anions
mp-10390,Ta2O5,True,False,1.2267,-3.346563131380951,[4.2],,10.1016/S0040-6090(99)00703-8,Double anions
mp-10390,Ta2O5,True,False,1.2267,-3.346563131380951,[3.7],,10.1016/j.commatsci.2019.03.044,Double anions
mp-10390,Ta2O5,True,False,1.2267,-3.346563131380951,[4.0],,10.1016/j.commatsci.2019.03.044,Double anions
mp-10390,Ta2O5,True,False,1.2267,-3.346563131380951,[4.3],,10.1016/j.electacta.2015.08.068,Double anions
mp-10390,Ta2O5,True,False,1.2267,-3.346563131380951,[0.5],,10.1016/j.jallcom.2017.01.033,Double anions
mp-10390,Ta2O5,True,False,1.2267,-3.346563131380951,[2.71],,10.1016/j.jallcom.2017.01.033,Double anions
mp-10390,Ta2O5,True,False,1.2267,-3.346563131380951,[0.43],,10.1016/j.jallcom.2017.01.033,Double anions
mp-10390,Ta2O5,True,False,1.2267,-3.346563131380951,[2.5],,10.1039/b202393h,Double anions
mp-10390,Ta2O5,True,False,1.2267,-3.346563131380951,[4.0],,10.1039/c1dt11124h,Double anions
mp-10390,Ta2O5,True,False,1.2267,-3.346563131380951,[3.9],,10.1039/c2cy20393f,Double anions
mp-10390,Ta2O5,True,False,1.2267,-3.346563131380951,[3.9],,10.1039/c3cs60438a,Double anions
mp-10390,Ta2O5,True,False,1.2267,-3.346563131380951,[4.5],,10.1039/c3tc31172d,Double anions
mp-10390,Ta2O5,True,False,1.2267,-3.346563131380951,[4.0],,10.1039/c4ta02991g,Double anions
mp-10390,Ta2O5,True,False,1.2267,-3.346563131380951,[4.85],550,10.1039/c4tc00598h,Double anions
mp-10390,Ta2O5,True,False,1.2267,-3.346563131380951,[3.9],,10.1039/c5ta07364b,Double anions
mp-10390,Ta2O5,True,False,1.2267,-3.346563131380951,[2.4],,10.1039/c6ra19368d,Double anions
mp-10390,Ta2O5,True,False,1.2267,-3.346563131380951,[2.25],,10.1039/c6ra25046g,Double anions
mp-10390,Ta2O5,True,False,1.2267,-3.346563131380951,[4.05],,10.1039/c7nj04993e,Double anions
mp-10390,Ta2O5,True,False,1.2267,-3.346563131380951,[4.56],,10.1039/c8nr09932d,Double anions
mp-10390,Ta2O5,True,False,1.2267,-3.346563131380951,[3.9],,10.1039/c8nr09932d,Double anions
mp-10390,Ta2O5,True,False,1.2267,-3.346563131380951,[3.9],,10.1039/c8ta09501a,Double anions
mp-10390,Ta2O5,True,False,1.2267,-3.346563131380951,[4.0],,10.1039/c9tc06711f,Double anions
mp-10390,Ta2O5,True,False,1.2267,-3.346563131380951,[4.0],,10.1039/c2cp43492j,Double anions
mp-10390,Ta2O5,True,False,1.2267,-3.346563131380951,[3.9],,10.1039/c2cs35267b,Double anions
mp-10390,Ta2O5,True,False,1.2267,-3.346563131380951,[4.0],,10.1039/c3ee42558d,Double anions
mp-10390,Ta2O5,True,False,1.2267,-3.346563131380951,[2.1],,10.1039/c4cp03594a,Double anions
mp-10390,Ta2O5,True,False,1.2267,-3.346563131380951,[4.38],,10.1039/c6ta10728a,Double anions
mp-10390,Ta2O5,True,False,1.2267,-3.346563131380951,[3.2],,10.1039/c7nr02215h,Double anions
mp-10390,Ta2O5,True,False,1.2267,-3.346563131380951,[4.2],,10.1039/c7nr02215h,Double anions
mp-10390,Ta2O5,True,False,1.2267,-3.346563131380951,[4.3],,10.1039/c8tc00679b,Double anions
mp-10390,Ta2O5,True,False,1.2267,-3.346563131380951,[3.75],,10.1039/d0se00791a,Double anions
mp-10390,Ta2O5,True,False,1.2267,-3.346563131380951,[2.4],,10.1039/c2jm33980c,Double anions
mp-10390,Ta2O5,True,False,1.2267,-3.346563131380951,[4.0],,10.1039/c2ra21283h,Double anions
mp-10390,Ta2O5,True,False,1.2267,-3.346563131380951,[4.4],,10.1039/c5ra07646c,Double anions
mp-10390,Ta2O5,True,False,1.2267,-3.346563131380951,[4.4],,10.1039/b904964a,Double anions
mp-10390,Ta2O5,True,False,1.2267,-3.346563131380951,[3.9],,10.1039/c2ce06480d,Double anions
mp-10390,Ta2O5,True,False,1.2267,-3.346563131380951,[3.7],300,10.1039/c3tc31041h,Double anions
mp-10390,Ta2O5,True,False,1.2267,-3.346563131380951,[4.0],,10.1039/c4nj01034e,Double anions
mp-10390,Ta2O5,True,False,1.2267,-3.346563131380951,[4.1],,10.1039/c6nj01076h,Double anions
mp-10390,Ta2O5,True,False,1.2267,-3.346563131380951,[3.9],,10.1039/c6nr04430a,Double anions