mpids,formula,is_stable,theoretical,band_gap,formation_energy_per_atom,Value,Temperature_raw_value,DOI,compound_type
mp-1078217,NaFeF3,True,False,2.2462,-2.739065476775862,[0.88],,10.1007/s10008-014-2454-7,Halides
mp-778228,Gd2(WO4)3,False,True,3.8025,-2.735250980882353,[3.3],,10.1007/s10854-017-6571-9,Double anions
mp-1245025,B2O3,False,True,4.1254,-2.7348864954666663,[8.0],,10.1016/j.optmat.2008.10.024,Double anions
mp-1245025,B2O3,False,True,4.1254,-2.7348864954666663,[6.2],,10.1016/j.tsf.2015.04.003,Double anions
mp-1245025,B2O3,False,True,4.1254,-2.7348864954666663,[5.26],,10.1016/j.flatc.2018.05.002,Double anions
mp-1245025,B2O3,False,True,4.1254,-2.7348864954666663,[8.45],,10.1016/j.jallcom.2014.03.162,Double anions
mp-1245025,B2O3,False,True,4.1254,-2.7348864954666663,[7.0],,10.1186/s40580-019-0185-2,Double anions
mp-1245025,B2O3,False,True,4.1254,-2.7348864954666663,[6.3],,10.1007/s10971-018-4815-7,Double anions
mp-1245025,B2O3,False,True,4.1254,-2.7348864954666663,[8.0],,10.1007/s11468-016-0496-7,Double anions
mp-1188804,DyMnO3,False,True,1.0173,-2.73365396741954,[3.73],,10.1007/s10948-017-4550-2,Oxides
mp-6089,BaZn2(PO4)2,True,False,4.0373,-2.729195811098901,[5.12],,10.1007/s10971-016-4024-1,Double anions
mp-6089,BaZn2(PO4)2,True,False,4.0373,-2.729195811098901,[3.65],,10.1007/s10971-016-4024-1,Double anions
mp-19048,BaWO4,True,False,4.8822,-2.729128477500001,[5.56],,10.1016/j.optmat.2019.04.026,Oxides
mp-19048,BaWO4,True,False,4.8822,-2.729128477500001,[3.8],,10.1039/c3ra44350g,Oxides
mp-19048,BaWO4,True,False,4.8822,-2.729128477500001,[1.2962],,10.1039/d0dt02184a,Oxides
mp-19048,BaWO4,True,False,4.8822,-2.729128477500001,[3.06],,10.1007/s11051-017-3970-z,Oxides
mp-19048,BaWO4,True,False,4.8822,-2.729128477500001,[5.88],,10.1007/s40097-014-0133-y,Oxides
mp-19048,BaWO4,True,False,4.8822,-2.729128477500001,[3.2],,10.1007/s10854-016-5016-1,Oxides
mp-19048,BaWO4,True,False,4.8822,-2.729128477500001,[4.6],,10.1186/1752-153X-7-80,Oxides
mp-19048,BaWO4,True,False,4.8822,-2.729128477500001,[4.5],,10.1007/s10854-020-03298-7,Oxides
mp-6396,Li3V2(PO4)3,True,False,1.8718999999999992,-2.727606636196428,[3.95],,10.1039/c8cp00354h,Double anions
mp-6396,Li3V2(PO4)3,True,False,1.8718999999999992,-2.727606636196428,[3.48],,10.1039/c8cp00354h,Double anions
mp-6396,Li3V2(PO4)3,True,False,1.8718999999999992,-2.727606636196428,[1.97],,10.1007/s10800-014-0782-z,Double anions
mp-6396,Li3V2(PO4)3,True,False,1.8718999999999992,-2.727606636196428,[1.24],,10.1007/s10800-014-0782-z,Double anions
mp-8810,SrZn2(PO4)2,True,False,4.1385,-2.727579975137362,[4.03],,10.1007/s10854-020-03552-y,Double anions
mp-19426,CaWO4,True,False,4.3443,-2.726062027499999,[5.56],,10.1016/j.optmat.2019.04.026,Oxides
mp-19426,CaWO4,True,False,4.3443,-2.726062027499999,[4.088],900,10.1016/j.optmat.2019.109562,Oxides
mp-19426,CaWO4,True,False,4.3443,-2.726062027499999,[4.5],,10.1016/j.optmat.2019.109562,Oxides
mp-19426,CaWO4,True,False,4.3443,-2.726062027499999,[4.45],,10.1016/j.ceramint.2020.06.144,Oxides
mp-19426,CaWO4,True,False,4.3443,-2.726062027499999,[4.19],800,10.1039/c4nj01911c,Oxides
mp-19426,CaWO4,True,False,4.3443,-2.726062027499999,[4.0],,10.1039/c6dt03626k,Oxides
mp-19426,CaWO4,True,False,4.3443,-2.726062027499999,[0.5],,10.1039/c2dt31376f,Oxides
mp-19426,CaWO4,True,False,4.3443,-2.726062027499999,[4.73],,10.1039/c9nj05677g,Oxides
mp-19426,CaWO4,True,False,4.3443,-2.726062027499999,[4.79],,10.1039/c9nj05677g,Oxides
mp-19426,CaWO4,True,False,4.3443,-2.726062027499999,[3.2],,10.1007/s10854-016-4785-x,Oxides
mp-19426,CaWO4,True,False,4.3443,-2.726062027499999,[4.2],,10.1007/s11164-014-1674-x,Oxides
mp-19426,CaWO4,True,False,4.3443,-2.726062027499999,[4.86],,10.1134/S0030400X17090053,Oxides
mp-15900,Sr3Sc2Cu2S2O5,False,False,1.2847,-2.7222874871428573,[2.4],,10.1007/s10854-019-01380-3,Double anions
mp-15900,Sr3Sc2Cu2S2O5,False,False,1.2847,-2.7222874871428573,[1.47],,10.1007/s10854-019-01380-3,Double anions
mp-31488,Li3NbO4,True,False,3.8385,-2.717096784687499,[4.0],,10.1016/j.tsf.2016.01.030,Oxides
mp-8568,Ca4PtO6,False,True,2.3407,-2.711582475909091,[0.29],,10.1103/PhysRevB.60.2333,Oxides
mp-8568,Ca4PtO6,False,True,2.3407,-2.711582475909091,[0.385],,10.1103/PhysRevB.60.2333,Oxides
mp-9172,Li4TiO4,True,False,4.5573,-2.707544761296296,[4.64],,10.1039/c9tc00197b,Oxides
mp-1104878,VPO4F,True,False,1.5351,-2.703090891020409,[1.62],,10.1007/s10008-020-04582-6,Halides
mp-27624,CaV2O6,True,False,2.8812,-2.699767045555556,[2.56],,10.1039/c5ra10465c,Double anions
mp-4438,CaSnO3,True,False,2.3301,-2.694555046500007,[4.54],,10.1016/j.physb.2010.05.004,Chalcogenides
mp-4438,CaSnO3,True,False,2.3301,-2.694555046500007,[4.2],,10.1016/j.jssc.2015.04.022,Chalcogenides
mp-4438,CaSnO3,True,False,2.3301,-2.694555046500007,[4.4],,10.1007/s10853-016-0021-6,Chalcogenides
mp-4438,CaSnO3,True,False,2.3301,-2.694555046500007,[0.75],,10.1007/s10853-013-7880-x,Chalcogenides
mp-4438,CaSnO3,True,False,2.3301,-2.694555046500007,[3.4],,10.1007/s10853-017-1385-y,Chalcogenides
mp-4438,CaSnO3,True,False,2.3301,-2.694555046500007,[4.3],,10.1007/s10971-011-2400-4,Chalcogenides
mp-4438,CaSnO3,True,False,2.3301,-2.694555046500007,[4.4],,10.1016/j.solidstatesciences.2016.02.010,Chalcogenides
mp-4533,Na2SiO3,True,False,3.8657,-2.692845917126435,[4.0],,10.1039/b517362k,Double anions
mp-559240,Li2MnSiO4,True,False,2.176599999999999,-2.690084414012211,[3.0],,10.1039/c7ta03049e,Double anions
mp-6798,Ba2NaReO6,True,False,1.8688,-2.688152365387931,[2.45],,10.1007/s00894-020-04421-5,Double anions
mp-3953,CaCO3,True,False,4.999499999999999,-2.688007888500004,[6.0],,10.1039/c4ta02070g,Oxides
mp-3953,CaCO3,True,False,4.999499999999999,-2.688007888500004,[6.0],,10.1007/s10854-013-1512-8,Oxides
mp-3953,CaCO3,True,False,4.999499999999999,-2.688007888500004,[7.2],,10.1007/s10876-011-0420-4,Oxides
mp-3953,CaCO3,True,False,4.999499999999999,-2.688007888500004,[5.0],,10.1007/s10973-011-1686-3,Oxides
mp-3953,CaCO3,True,False,4.999499999999999,-2.688007888500004,[5.14],,10.1007/s00894-020-04494-2,Oxides
mp-3953,CaCO3,True,False,4.999499999999999,-2.688007888500004,[4.0],,10.1021/ic062120z,Oxides
mp-3953,CaCO3,True,False,4.999499999999999,-2.688007888500004,[4.29],,10.1021/ic062120z,Oxides
mp-3953,CaCO3,True,False,4.999499999999999,-2.688007888500004,[4.01],,10.1021/ic062120z,Oxides
mp-3953,CaCO3,True,False,4.999499999999999,-2.688007888500004,[4.27],,10.1021/ic062120z,Oxides
mp-3924,LiNbO2,True,False,1.579499999999999,-2.686382930833336,[3.16],,10.1038/srep20446,Double anions
mp-5504,BaCO3,True,False,4.397399999999999,-2.683242691500004,[5.51],,10.1007/s10854-019-00813-3,Oxides
mp-5504,BaCO3,True,False,4.397399999999999,-2.683242691500004,[4.61],,10.1007/s00289-018-2658-6,Oxides
mp-1041014,MgV2O4,False,True,1.2114,-2.6830051392857133,[2.81],,10.1039/c9dt03468d,Double anions
mp-776557,Na3V2(PO4)3,True,True,1.9166,-2.675392726653324,[1.867],,10.1039/c9ta00869a,Double anions
mp-11737,Li4SiO4,True,False,4.7841000000000005,-2.6748830125925918,[5.53],,10.1016/j.physb.2012.07.013,Chalcogenides
mp-11737,Li4SiO4,True,False,4.7841000000000005,-2.6748830125925918,[5.53],,10.1039/c5nj01911g,Chalcogenides
mp-11737,Li4SiO4,True,False,4.7841000000000005,-2.6748830125925918,[17.5],,10.1039/c3cp51659h,Chalcogenides
mp-18834,SrMoO4,True,False,3.8445,-2.664873142499999,[3.25],,10.1007/s10854-016-4489-2,Chalcogenides
mp-18834,SrMoO4,True,False,3.8445,-2.664873142499999,[3.58],,10.1007/s11581-018-2490-x,Chalcogenides
mp-1020707,Rb2GeB4O9,True,False,4.2812,-2.655388389947917,[5.54],,10.1021/ic102597y,Double anions
mp-1101601,LiV2(PO4)3,True,True,1.3092,-2.6549863170701062,[0.1],,10.1039/c8ee01883a,Double anions
mp-19276,BaMoO4,True,False,3.7927,-2.654552259166666,[3.3],,10.1007/s10854-016-4627-x,Oxides
mp-19276,BaMoO4,True,False,3.7927,-2.654552259166666,[3.35],,10.1134/S0036023618060141,Oxides
mp-19276,BaMoO4,True,False,3.7927,-2.654552259166666,[4.7],400,10.3938/jkps.76.745,Oxides
mp-18601,DyMn2O5,True,False,1.0799,-2.652315557191061,[1.61],,10.1016/j.physb.2017.03.017,Double anions
mp-22398,FeF3,True,False,3.1061,-2.650552071041668,[4.01],,10.1039/c5ta03327f,Halides
mp-22398,FeF3,True,False,3.1061,-2.650552071041668,[3.01],,10.1039/c6ra12567k,Halides
mp-22398,FeF3,True,False,3.1061,-2.650552071041668,[5.96],,10.1039/c2jm34391f,Halides
mp-1199892,RbGeB3O7,False,False,4.5867,-2.642318686041665,[5.58],,10.1021/ic102597y,Oxides
mp-1272506,Ba2FeWO6,False,True,2.506199999999999,-2.639823302,[0.06],,10.1016/j.physb.2015.11.019,Double anions
mp-19330,CaMoO4,True,False,3.5006999999999997,-2.639627267500002,[4.4],,10.1016/j.omx.2019.100015,Oxides
mp-19330,CaMoO4,True,False,3.5006999999999997,-2.639627267500002,[3.9],,10.1016/j.physb.2016.06.009,Oxides
mp-19330,CaMoO4,True,False,3.5006999999999997,-2.639627267500002,[3.6],,10.1039/c1dt10878f,Oxides
mp-19330,CaMoO4,True,False,3.5006999999999997,-2.639627267500002,[3.09],,10.1039/c8ce01160e,Oxides
mp-19330,CaMoO4,True,False,3.5006999999999997,-2.639627267500002,[3.0],,10.1039/c8na00156a,Oxides
mp-19330,CaMoO4,True,False,3.5006999999999997,-2.639627267500002,[3.72],,10.1039/c9ta08211e,Oxides
mp-19330,CaMoO4,True,False,3.5006999999999997,-2.639627267500002,[3.57],,10.1039/c9nj05677g,Oxides
mp-19330,CaMoO4,True,False,3.5006999999999997,-2.639627267500002,[3.41],,10.1039/c3dt53450b,Oxides
mp-19330,CaMoO4,True,False,3.5006999999999997,-2.639627267500002,[3.1],,10.1007/s10854-016-4303-1,Oxides
mp-19330,CaMoO4,True,False,3.5006999999999997,-2.639627267500002,[3.85],,10.1007/s10854-017-7398-0,Oxides
mp-19330,CaMoO4,True,False,3.5006999999999997,-2.639627267500002,[3.09],,10.1007/s00339-014-8308-4,Oxides
mp-2879,SrSnO3,True,False,1.7365,-2.6373586375,[4.1],,10.1016/j.cej.2009.09.004,Chalcogenides
mp-2879,SrSnO3,True,False,1.7365,-2.6373586375,[4.08],,10.1016/j.optmat.2020.110136,Chalcogenides
mp-2879,SrSnO3,True,False,1.7365,-2.6373586375,[4.1],,10.1016/j.optmat.2020.110139,Chalcogenides
mp-2879,SrSnO3,True,False,1.7365,-2.6373586375,[4.27],,10.1016/j.tsf.2011.03.038,Chalcogenides
mp-2879,SrSnO3,True,False,1.7365,-2.6373586375,[4.51],,10.1016/j.physe.2019.01.010,Chalcogenides
mp-2879,SrSnO3,True,False,1.7365,-2.6373586375,[4.1],300,10.1039/c4ra16775a,Chalcogenides
mp-2879,SrSnO3,True,False,1.7365,-2.6373586375,[3.51],,10.1039/c4ra16775a,Chalcogenides
mp-2879,SrSnO3,True,False,1.7365,-2.6373586375,[3.93],,10.1039/c6cp06042k,Chalcogenides
mp-2879,SrSnO3,True,False,1.7365,-2.6373586375,[4.1],300,10.1039/c9tc06211d,Chalcogenides
mp-2879,SrSnO3,True,False,1.7365,-2.6373586375,[4.1],,10.1007/s12666-017-1051-8,Chalcogenides
mp-2879,SrSnO3,True,False,1.7365,-2.6373586375,[3.9],,10.1186/s40580-020-00242-7,Chalcogenides
mp-2879,SrSnO3,True,False,1.7365,-2.6373586375,[4.07],,10.1007/s10853-017-1385-y,Chalcogenides
mp-2879,SrSnO3,True,False,1.7365,-2.6373586375,[4.1],300,10.1007/s10854-016-6032-x,Chalcogenides
mp-2879,SrSnO3,True,False,1.7365,-2.6373586375,[4.0],,10.1007/s10854-016-6032-x,Chalcogenides
mp-2879,SrSnO3,True,False,1.7365,-2.6373586375,[4.06],,10.1007/s11356-018-1524-2,Chalcogenides
mp-2879,SrSnO3,True,False,1.7365,-2.6373586375,[1.68],,10.1007/s00339-019-2466-3,Chalcogenides
mp-2879,SrSnO3,True,False,1.7365,-2.6373586375,[4.1],,10.1186/s11671-020-03390-1,Chalcogenides
mp-2879,SrSnO3,True,False,1.7365,-2.6373586375,[4.1],,10.1016/j.solidstatesciences.2016.02.010,Chalcogenides
mp-19003,MgV2O5,False,False,2.308,-2.634517196250001,[0.02],,10.1039/c4cp02230k,Double anions
mp-18997,LiMnPO4,True,False,3.411499999999999,-2.633428733343891,[2.0],,10.1039/c2ta01393b,Oxides
mp-18997,LiMnPO4,True,False,3.411499999999999,-2.633428733343891,[0.27],,10.1039/c2ta01393b,Oxides
mp-18997,LiMnPO4,True,False,3.411499999999999,-2.633428733343891,[3.96],,10.1039/c2ta01393b,Oxides
mp-18997,LiMnPO4,True,False,3.411499999999999,-2.633428733343891,[2.0],,10.1039/c7ra04194b,Oxides
mp-18997,LiMnPO4,True,False,3.411499999999999,-2.633428733343891,[0.2],,10.1039/c5ce01253h,Oxides
mp-18997,LiMnPO4,True,False,3.411499999999999,-2.633428733343891,[2.0],,10.1007/s11581-017-2366-5,Oxides
mp-18997,LiMnPO4,True,False,3.411499999999999,-2.633428733343891,[2.0],,10.1007/s11581-015-1633-6,Oxides
mp-19202,MgCr2O4,True,False,3.139,-2.6289158835714237,[0.693],"1,000",10.1007/s10973-013-3531-3,Double anions
mp-19202,MgCr2O4,True,False,3.139,-2.6289158835714237,[0.693],,10.1007/s10973-013-3531-3,Double anions
mp-19202,MgCr2O4,True,False,3.139,-2.6289158835714237,[2.84],,10.1038/s41598-020-71903-0,Double anions
mp-23237,BiF3,True,False,4.6808,-2.623305978125,[3.94],,10.1039/c6tc00447d,Halides
mp-558753,BiB2O4F,False,False,4.1919,-2.618454928437499,[4.21],,10.1039/c9nj05873g,Double anions
mp-558753,BiB2O4F,False,False,4.1919,-2.618454928437499,[4.43],,10.1039/c4qi00192c,Double anions
mp-1212633,LaGaGe2O7,False,True,3.1959,-2.6129290129545453,[3.3],,10.1039/c5ra01714a,Double anions
mp-559186,BaBiBO4,True,False,3.5528,-2.6110974963095237,[3.53],,10.1002/crat.200711098,Oxides
mp-19114,Ca2NiWO6,True,False,2.933,-2.608180873,[2.32],,10.1039/c6ra26072a,Double anions
mp-1274308,Sr2CoWO6,True,True,2.0256,-2.605262132499999,[2.38],,10.1007/s10854-019-00718-1,Double anions
mp-1120739,CaCl2,False,True,4.8803,-2.605115638333333,[3.3],,10.1039/c9sc01216h,Double anions
mp-1120739,CaCl2,False,True,4.8803,-2.605115638333333,[3.1],,10.1039/c9sc01216h,Double anions
mp-7611,Li2CaGeO4,True,False,4.1135,-2.604269733958333,[2.4],,10.1016/j.optmat.2014.04.024,Double anions
mp-8491,LiInP2O7,True,False,3.9726,-2.6025876490259723,[4.6],,10.1016/j.optmat.2007.02.009,Double anions
mp-1288145,LaCoO3,True,False,0.9497,-2.599926138,[1.0],,10.1016/j.physb.2012.11.002,Oxides
mp-1288145,LaCoO3,True,False,0.9497,-2.599926138,[3.0],,10.1016/j.physb.2012.11.002,Oxides
mp-1288145,LaCoO3,True,False,0.9497,-2.599926138,[2.0],,10.1016/j.tsf.2016.07.031,Oxides
mp-1288145,LaCoO3,True,False,0.9497,-2.599926138,[0.49],,10.1016/j.ssc.2010.08.023,Oxides
mp-1288145,LaCoO3,True,False,0.9497,-2.599926138,[0.6],,10.1016/j.ssc.2010.08.023,Oxides
mp-1288145,LaCoO3,True,False,0.9497,-2.599926138,[3.4],,10.1016/j.ssc.2010.08.023,Oxides
mp-1288145,LaCoO3,True,False,0.9497,-2.599926138,[8.0],,10.1016/j.ssc.2010.08.023,Oxides
mp-1288145,LaCoO3,True,False,0.9497,-2.599926138,[8.33],,10.1016/j.ssc.2010.08.023,Oxides
mp-1288145,LaCoO3,True,False,0.9497,-2.599926138,[1.43],,10.1016/j.ssc.2010.08.023,Oxides
mp-1288145,LaCoO3,True,False,0.9497,-2.599926138,[3.19],,10.1039/c0cp02562c,Oxides
mp-1288145,LaCoO3,True,False,0.9497,-2.599926138,[1.5],,10.1039/c5ra23244a,Oxides
mp-1288145,LaCoO3,True,False,0.9497,-2.599926138,[3.0],,10.1039/c4ra12563k,Oxides
mp-1288145,LaCoO3,True,False,0.9497,-2.599926138,[2.2],,10.1039/c4ra12563k,Oxides
mp-1288145,LaCoO3,True,False,0.9497,-2.599926138,[2.2],,10.1039/c7ra06542f,Oxides
mp-1288145,LaCoO3,True,False,0.9497,-2.599926138,[0.5],,10.1039/c7ra06542f,Oxides
mp-1288145,LaCoO3,True,False,0.9497,-2.599926138,[0.5],,10.1039/c8cp07832g,Oxides
mp-1288145,LaCoO3,True,False,0.9497,-2.599926138,[1.0],300,10.1039/c8cp07832g,Oxides
mp-1288145,LaCoO3,True,False,0.9497,-2.599926138,[2.72],,10.1007/s12598-019-01329-9,Oxides
mp-1288145,LaCoO3,True,False,0.9497,-2.599926138,[2.8],,10.1007/s12598-019-01329-9,Oxides
mp-1288145,LaCoO3,True,False,0.9497,-2.599926138,[2.89],,10.1007/s42860-019-00032-1,Oxides
mp-1288145,LaCoO3,True,False,0.9497,-2.599926138,[0.71],,10.1038/s41598-020-71869-z,Oxides
mp-21723,SiPbO3,True,False,3.1904999999999992,-2.5959264841666823,[0.9],,10.1007/s11082-020-02521-3,Chalcogenides
mp-1096782,Ba2VFeO6,False,True,1.0389,-2.592685414,[1.0],,10.1038/s41598-017-06396-5,Double anions
mp-556911,FeF2,True,False,1.6921,-2.592156949999999,[2.0],,10.1039/c5cp01150g,Double anions
mp-560216,Cs2GeP4O13,True,False,4.236700000000001,-2.59129854014409,[3.888],,10.1021/jp901706g,Double anions
mp-1178513,BaSnO3,False,True,0.665099999999999,-2.586822249000001,[3.4],,10.1016/j.optmat.2020.110139,Chalcogenides
mp-1178513,BaSnO3,False,True,0.665099999999999,-2.586822249000001,[3.1],,10.1016/j.physb.2012.03.059,Chalcogenides
mp-1178513,BaSnO3,False,True,0.665099999999999,-2.586822249000001,[0.9],,10.1016/j.physb.2013.09.004,Chalcogenides
mp-1178513,BaSnO3,False,True,0.665099999999999,-2.586822249000001,[3.1],,10.1016/j.physb.2016.07.030,Chalcogenides
mp-1178513,BaSnO3,False,True,0.665099999999999,-2.586822249000001,[3.1],,10.1016/j.chemphys.2019.02.018,Chalcogenides
mp-1178513,BaSnO3,False,True,0.665099999999999,-2.586822249000001,[3.3],,10.1016/j.jallcom.2017.05.112,Chalcogenides
mp-1178513,BaSnO3,False,True,0.665099999999999,-2.586822249000001,[3.1],,10.1039/c5ta01948f,Chalcogenides
mp-1178513,BaSnO3,False,True,0.665099999999999,-2.586822249000001,[2.3],,10.1039/c5ta01948f,Chalcogenides
mp-1178513,BaSnO3,False,True,0.665099999999999,-2.586822249000001,[4.4],,10.1039/c9qi00777f,Chalcogenides
mp-1178513,BaSnO3,False,True,0.665099999999999,-2.586822249000001,[3.1],1000,10.1039/c9ra02146a,Chalcogenides
mp-1178513,BaSnO3,False,True,0.665099999999999,-2.586822249000001,[3.1],300,10.1039/c5cc08156d,Chalcogenides
mp-1178513,BaSnO3,False,True,0.665099999999999,-2.586822249000001,[3.2],,10.1039/c6ra02207c,Chalcogenides
mp-1178513,BaSnO3,False,True,0.665099999999999,-2.586822249000001,[3.1],,10.1039/c6ta09689a,Chalcogenides
mp-1178513,BaSnO3,False,True,0.665099999999999,-2.586822249000001,[1.96],,10.1039/c7cp03952b,Chalcogenides
mp-1178513,BaSnO3,False,True,0.665099999999999,-2.586822249000001,[3.1],,10.1039/c8ta08764d,Chalcogenides
mp-1178513,BaSnO3,False,True,0.665099999999999,-2.586822249000001,[3.2],,10.1039/d0cs00573h,Chalcogenides
mp-1178513,BaSnO3,False,True,0.665099999999999,-2.586822249000001,[3.1],,10.1039/c7ra01847a,Chalcogenides
mp-1178513,BaSnO3,False,True,0.665099999999999,-2.586822249000001,[3.1],,10.1039/c8tc06177g,Chalcogenides
mp-1178513,BaSnO3,False,True,0.665099999999999,-2.586822249000001,[3.4],,10.1007/s10971-015-3831-0,Chalcogenides
mp-1178513,BaSnO3,False,True,0.665099999999999,-2.586822249000001,[3.1],,10.1007/s00339-012-6873-y,Chalcogenides
mp-1178513,BaSnO3,False,True,0.665099999999999,-2.586822249000001,[4.1],,10.1007/s10973-016-5464-0,Chalcogenides
mp-1178513,BaSnO3,False,True,0.665099999999999,-2.586822249000001,[1.9],,10.1007/s13204-018-0677-0,Chalcogenides
mp-1178513,BaSnO3,False,True,0.665099999999999,-2.586822249000001,[3.1],300,10.1186/s40580-020-00242-7,Chalcogenides
mp-1178513,BaSnO3,False,True,0.665099999999999,-2.586822249000001,[3.37],,10.1007/s10854-015-3770-0,Chalcogenides
mp-1178513,BaSnO3,False,True,0.665099999999999,-2.586822249000001,[3.1],1000,10.1007/s00214-016-1901-1,Chalcogenides
mp-1178513,BaSnO3,False,True,0.665099999999999,-2.586822249000001,[3.0],,10.1007/s00214-016-1901-1,Chalcogenides
mp-1178513,BaSnO3,False,True,0.665099999999999,-2.586822249000001,[3.4],,10.1007/s10853-010-4432-5,Chalcogenides
mp-1178513,BaSnO3,False,True,0.665099999999999,-2.586822249000001,[3.1],,10.1007/s11082-016-0619-6,Chalcogenides
mp-1178513,BaSnO3,False,True,0.665099999999999,-2.586822249000001,[3.4],,10.1038/s41598-017-00178-9,Chalcogenides
mp-1178513,BaSnO3,False,True,0.665099999999999,-2.586822249000001,[3.4],,10.1007/s00339-019-2432-0,Chalcogenides
mp-1178513,BaSnO3,False,True,0.665099999999999,-2.586822249000001,[3.3],,10.1007/s00339-019-2466-3,Chalcogenides
mp-1178513,BaSnO3,False,True,0.665099999999999,-2.586822249000001,[0.7],,10.1007/s00339-019-2466-3,Chalcogenides
mp-1178513,BaSnO3,False,True,0.665099999999999,-2.586822249000001,[3.4],,10.1007/s10853-014-8607-3,Chalcogenides
mp-1178513,BaSnO3,False,True,0.665099999999999,-2.586822249000001,[3.4],,10.1007/s10854-013-1364-2,Chalcogenides
mp-1178513,BaSnO3,False,True,0.665099999999999,-2.586822249000001,[3.1],,10.1002/zaac.200700311,Chalcogenides
mp-1178513,BaSnO3,False,True,0.665099999999999,-2.586822249000001,[0.4],,10.1016/j.matlet.2009.04.001,Chalcogenides
mp-776110,SiSnO3,False,True,2.6768,-2.5862830018333343,[0.7],,10.1007/s11082-020-02521-3,Chalcogenides
mp-776110,SiSnO3,False,True,2.6768,-2.5862830018333343,[5.5],,10.1007/s11082-020-02521-3,Chalcogenides