mpids,formula,is_stable,theoretical,band_gap,formation_energy_per_atom,Value,Temperature_raw_value,DOI,compound_type
mp-10390,Ta2O5,True,False,1.2267,-3.346563131380951,[4.2],,10.1039/c5cc01015b,Double anions
mp-10390,Ta2O5,True,False,1.2267,-3.346563131380951,[3.5],,10.1007/s10854-006-0015-2,Double anions
mp-10390,Ta2O5,True,False,1.2267,-3.346563131380951,[3.2],,10.1007/s10854-016-5758-9,Double anions
mp-10390,Ta2O5,True,False,1.2267,-3.346563131380951,[3.62],,10.1007/s11144-011-0404-2,Double anions
mp-10390,Ta2O5,True,False,1.2267,-3.346563131380951,[3.62],680–720,10.1007/s11144-011-0404-2,Double anions
mp-10390,Ta2O5,True,False,1.2267,-3.346563131380951,[4.4],,10.1038/s41598-017-05248-6,Double anions
mp-10390,Ta2O5,True,False,1.2267,-3.346563131380951,[5.68],,10.1186/s11671-017-1905-3,Double anions
mp-10390,Ta2O5,True,False,1.2267,-3.346563131380951,[4.0],,10.1007/s10008-020-04704-0,Double anions
mp-10390,Ta2O5,True,False,1.2267,-3.346563131380951,[4.0],,10.1007/s10854-020-03237-6,Double anions
mp-10390,Ta2O5,True,False,1.2267,-3.346563131380951,[3.93],,10.1007/s10971-019-05009-z,Double anions
mp-10390,Ta2O5,True,False,1.2267,-3.346563131380951,[4.4],,10.1134/S0030400X20020046,Double anions
mp-10390,Ta2O5,True,False,1.2267,-3.346563131380951,[4.4],,10.1186/s11671-019-2907-0,Double anions
mp-10390,Ta2O5,True,False,1.2267,-3.346563131380951,[4.0],,10.1007/s00339-016-0006-y,Double anions
mp-10390,Ta2O5,True,False,1.2267,-3.346563131380951,[3.9],,10.1007/s00396-012-2865-x,Double anions
mp-10390,Ta2O5,True,False,1.2267,-3.346563131380951,[4.0],,10.1007/s10800-007-9333-1,Double anions
mp-10390,Ta2O5,True,False,1.2267,-3.346563131380951,[4.0],,10.1007/s10854-020-04386-4,Double anions
mp-10390,Ta2O5,True,False,1.2267,-3.346563131380951,[4.2],,10.1103/PhysRevB.60.2333,Double anions
mp-10390,Ta2O5,True,False,1.2267,-3.346563131380951,[4.55],,10.1103/PhysRevB.60.2333,Double anions
mp-10390,Ta2O5,True,False,1.2267,-3.346563131380951,[3.58],,10.1103/PhysRevB.60.2333,Double anions
mp-3393,Sr3Al2O6,True,False,4.2291,-3.342221047765152,[6.3],,10.1016/j.rinp.2019.02.004,Double anions
mp-768814,Y2GeO5,True,True,3.5881,-3.338367075000007,[4.0],,10.1039/c2cp42380d,Double anions
mp-1228557,Ba8Ti3Nb4O24,False,True,1.9693,-3.337986506923076,[3.4],,10.1016/j.ceramint.2012.06.067,Double anions
mp-638261,La2GeO5,True,False,4.021000000000001,-3.330141265312501,[5.852],,10.1016/j.optmat.2018.09.024,Double anions
mp-638261,La2GeO5,True,False,4.021000000000001,-3.330141265312501,[3.894],,10.1016/j.optmat.2018.09.024,Double anions
mp-10347,CsCa2Ta3O10,False,False,2.1798,-3.319276431978449,[3.8],,10.1039/c0cc05440b,Double anions
mp-2605,CaO,True,False,3.6301,-3.306019392499999,[6.5],,10.1016/j.cej.2012.04.011,Oxides
mp-2605,CaO,True,False,3.6301,-3.306019392499999,[7.1],,10.1016/j.matpr.2020.05.246,Oxides
mp-2605,CaO,True,False,3.6301,-3.306019392499999,[6.0],,10.1016/j.optmat.2013.03.001,Oxides
mp-2605,CaO,True,False,3.6301,-3.306019392499999,[0.001],,10.1016/j.optmat.2013.03.001,Oxides
mp-2605,CaO,True,False,3.6301,-3.306019392499999,[3.32],,10.1016/j.physb.2008.05.030,Oxides
mp-2605,CaO,True,False,3.6301,-3.306019392499999,[2.387],,10.1016/j.rinp.2018.07.042,Oxides
mp-2605,CaO,True,False,3.6301,-3.306019392499999,[6.8],,10.1016/j.tsf.2005.10.082,Oxides
mp-2605,CaO,True,False,3.6301,-3.306019392499999,[2.08],,10.1016/j.commatsci.2016.04.021,Oxides
mp-2605,CaO,True,False,3.6301,-3.306019392499999,[7.0],,10.1016/j.solidstatesciences.2017.07.001,Oxides
mp-2605,CaO,True,False,3.6301,-3.306019392499999,[4.0],,10.1039/c4cp01565g,Oxides
mp-2605,CaO,True,False,3.6301,-3.306019392499999,[7.1],,10.1039/c4cp01565g,Oxides
mp-2605,CaO,True,False,3.6301,-3.306019392499999,[6.3],,10.1039/c7ta11154a,Oxides
mp-2605,CaO,True,False,3.6301,-3.306019392499999,[7.03],,10.1039/c5ra09246a,Oxides
mp-2605,CaO,True,False,3.6301,-3.306019392499999,[2.1],,10.1038/s41598-020-71951-6,Oxides
mp-2605,CaO,True,False,3.6301,-3.306019392499999,[4.1],,10.1007/s10853-015-9393-2,Oxides
mp-2605,CaO,True,False,3.6301,-3.306019392499999,[3.65],,10.1038/srep12330,Oxides
mp-2605,CaO,True,False,3.6301,-3.306019392499999,[3.28],,10.1007/s00894-018-3587-x,Oxides
mp-2605,CaO,True,False,3.6301,-3.306019392499999,[6.4],,10.1007/s10854-008-9570-z,Oxides
mp-2605,CaO,True,False,3.6301,-3.306019392499999,[2.489],,10.1007/s13204-019-00997-4,Oxides
mp-2605,CaO,True,False,3.6301,-3.306019392499999,[3.5],,10.1007/s42452-020-03662-6,Oxides
mp-2605,CaO,True,False,3.6301,-3.306019392499999,[2.6],,10.1103/PhysRevB.60.2333,Oxides
mp-2605,CaO,True,False,3.6301,-3.306019392499999,[3.6],,10.1103/PhysRevB.60.2333,Oxides
mp-2605,CaO,True,False,3.6301,-3.306019392499999,[7.7],,10.1021/jacs.5b03986,Oxides
mp-2605,CaO,True,False,3.6301,-3.306019392499999,[6.1],,10.1021/jacs.5b03986,Oxides
mp-2605,CaO,True,False,3.6301,-3.306019392499999,[7.0],,10.1021/jacs.5b03986,Oxides
mp-2605,CaO,True,False,3.6301,-3.306019392499999,[7.03],,10.1021/jacs.5b03986,Oxides
mp-2605,CaO,True,False,3.6301,-3.306019392499999,[7.5],,10.1021/jacs.5b03986,Oxides
mp-3870,Sr2Nb2O7,True,False,2.6843999999999992,-3.300364764999999,[2.46],,10.1039/c2cp23912d,Double anions
mp-3870,Sr2Nb2O7,True,False,2.6843999999999992,-3.300364764999999,[1.45],,10.1039/c2cp23912d,Double anions
mp-3870,Sr2Nb2O7,True,False,2.6843999999999992,-3.300364764999999,[0.64],,10.1039/c2cp23912d,Double anions
mp-3870,Sr2Nb2O7,True,False,2.6843999999999992,-3.300364764999999,[2.15],,10.1039/c4nr00537f,Double anions
mp-3870,Sr2Nb2O7,True,False,2.6843999999999992,-3.300364764999999,[2.8],,10.1039/c4nr00537f,Double anions
mp-1228150,Ba3LaNb3O12,False,True,2.6586,-3.299096265526316,[4.1],,10.1039/b818922f,Double anions
mp-761057,Sr5Nb4O15,True,True,2.8004,-3.298532114583332,[4.0],,10.1039/b818922f,Chalcogenides
mp-13979,Ca2Nb2O7,True,False,3.011,-3.297524677045454,[2.14],,10.1016/j.physb.2018.05.041,Double anions
mp-5999,Sm2Ti2S2O5,True,False,0.779899999999999,-3.293462144242426,[2.0],,10.1039/c3cy20853b,Double anions
mp-5999,Sm2Ti2S2O5,True,False,0.779899999999999,-3.293462144242426,[3.6],,10.1039/c3cy20853b,Double anions
mp-1192032,NaSr3Be3B3O9F4,False,False,4.7554,-3.28659885255997,[4.82],,10.1016/j.optmat.2015.07.007,Halides
mp-14972,Ba3Sc(BO3)3,True,False,3.4727,-3.282306826927083,[6.9],,10.1039/c2jm16350k,Chalcogenides
mp-757031,Mg2TiO4,True,True,3.4044,-3.2730648479761912,[3.55],,10.1039/c6ra16284c,Double anions
mp-3563,Ba5Nb4O15,True,False,2.5999,-3.271554933958334,[3.81],,10.1016/j.jallcom.2015.05.052,Oxides
mp-3563,Ba5Nb4O15,True,False,2.5999,-3.271554933958334,[2.31],,10.1016/j.jallcom.2015.05.052,Oxides
mp-3563,Ba5Nb4O15,True,False,2.5999,-3.271554933958334,[3.85],,10.1016/j.jallcom.2015.05.052,Oxides
mp-3563,Ba5Nb4O15,True,False,2.5999,-3.271554933958334,[2.58],,10.1016/j.jallcom.2015.05.052,Oxides
mp-3563,Ba5Nb4O15,True,False,2.5999,-3.271554933958334,[1.02],,10.1016/j.jallcom.2015.05.052,Oxides
mp-3563,Ba5Nb4O15,True,False,2.5999,-3.271554933958334,[3.9],,10.1039/b818922f,Oxides
mp-3563,Ba5Nb4O15,True,False,2.5999,-3.271554933958334,[0.1],,10.1039/b818922f,Oxides
mp-3563,Ba5Nb4O15,True,False,2.5999,-3.271554933958334,[3.81],,10.1039/c6ra10603j,Oxides
mp-555483,SiO2,False,True,4.721699999999999,-3.259284434166667,[9.0],,10.1016/j.cej.2016.06.014,Double anions
mp-555483,SiO2,False,True,4.721699999999999,-3.259284434166667,[8.0],,10.1016/j.cej.2019.03.012,Double anions
mp-555483,SiO2,False,True,4.721699999999999,-3.259284434166667,[0.85],,10.1016/j.cej.2020.124720,Double anions
mp-555483,SiO2,False,True,4.721699999999999,-3.259284434166667,[2.91],,10.1016/j.jece.2017.11.037,Double anions
mp-555483,SiO2,False,True,4.721699999999999,-3.259284434166667,[8.0],,10.1016/j.jece.2018.10.001,Double anions
mp-555483,SiO2,False,True,4.721699999999999,-3.259284434166667,[2.31],,10.1016/j.matpr.2020.04.067,Double anions
mp-555483,SiO2,False,True,4.721699999999999,-3.259284434166667,[10.0],,10.1016/j.optmat.2010.11.011,Double anions
mp-555483,SiO2,False,True,4.721699999999999,-3.259284434166667,[3.0],,10.1016/j.optmat.2019.109335,Double anions
mp-555483,SiO2,False,True,4.721699999999999,-3.259284434166667,[7.66],,10.1016/j.physb.2011.07.004,Double anions
mp-555483,SiO2,False,True,4.721699999999999,-3.259284434166667,[9.0],,10.1016/j.physb.2011.08.079,Double anions
mp-555483,SiO2,False,True,4.721699999999999,-3.259284434166667,[9.0],,10.1016/j.tsf.2004.01.017,Double anions
mp-555483,SiO2,False,True,4.721699999999999,-3.259284434166667,[0.85],,10.1016/j.tsf.2004.02.053,Double anions
mp-555483,SiO2,False,True,4.721699999999999,-3.259284434166667,[9.0],,10.1016/j.tsf.2005.02.005,Double anions
mp-555483,SiO2,False,True,4.721699999999999,-3.259284434166667,[8.5],,10.1016/j.tsf.2005.08.159,Double anions
mp-555483,SiO2,False,True,4.721699999999999,-3.259284434166667,[1.0],,10.1016/j.tsf.2005.08.409,Double anions
mp-555483,SiO2,False,True,4.721699999999999,-3.259284434166667,[8.5],,10.1016/j.tsf.2005.10.061,Double anions
mp-555483,SiO2,False,True,4.721699999999999,-3.259284434166667,[9.0],,10.1016/j.tsf.2007.03.092,Double anions
mp-555483,SiO2,False,True,4.721699999999999,-3.259284434166667,[8.9],,10.1016/j.tsf.2007.10.077,Double anions
mp-555483,SiO2,False,True,4.721699999999999,-3.259284434166667,[9.0],,10.1016/j.tsf.2008.03.017,Double anions
mp-555483,SiO2,False,True,4.721699999999999,-3.259284434166667,[8.0],,10.1016/j.tsf.2008.07.007,Double anions
mp-555483,SiO2,False,True,4.721699999999999,-3.259284434166667,[9.0],,10.1016/j.tsf.2009.01.099,Double anions
mp-555483,SiO2,False,True,4.721699999999999,-3.259284434166667,[5.5],,10.1016/j.tsf.2009.02.102,Double anions
mp-555483,SiO2,False,True,4.721699999999999,-3.259284434166667,[8.0],,10.1016/j.tsf.2009.11.068,Double anions
mp-555483,SiO2,False,True,4.721699999999999,-3.259284434166667,[3.1],,10.1016/j.tsf.2011.02.008,Double anions
mp-555483,SiO2,False,True,4.721699999999999,-3.259284434166667,[5.0],,10.1016/j.tsf.2011.02.060,Double anions
mp-555483,SiO2,False,True,4.721699999999999,-3.259284434166667,[7.8],,10.1016/j.tsf.2013.01.004,Double anions
mp-555483,SiO2,False,True,4.721699999999999,-3.259284434166667,[3.88],300,10.1016/j.tsf.2016.01.027,Double anions
mp-555483,SiO2,False,True,4.721699999999999,-3.259284434166667,[8.9],,10.1016/j.tsf.2016.07.072,Double anions
mp-555483,SiO2,False,True,4.721699999999999,-3.259284434166667,[9.0],,10.1016/j.tsf.2016.09.001,Double anions
mp-555483,SiO2,False,True,4.721699999999999,-3.259284434166667,[8.9],,10.1016/j.tsf.2018.05.010,Double anions
mp-555483,SiO2,False,True,4.721699999999999,-3.259284434166667,[9.3],,10.1016/j.tsf.2018.10.002,Double anions
mp-555483,SiO2,False,True,4.721699999999999,-3.259284434166667,[9.7],,10.1016/j.cjph.2020.03.014,Double anions
mp-555483,SiO2,False,True,4.721699999999999,-3.259284434166667,[2.8],,10.1016/j.cplett.2015.08.004,Double anions
mp-555483,SiO2,False,True,4.721699999999999,-3.259284434166667,[4.24],,10.1016/j.jscs.2018.10.002,Double anions
mp-555483,SiO2,False,True,4.721699999999999,-3.259284434166667,[0.1],,10.1016/j.susc.2008.07.036,Double anions
mp-555483,SiO2,False,True,4.721699999999999,-3.259284434166667,[7.9],,10.1016/j.susc.2008.07.036,Double anions
mp-555483,SiO2,False,True,4.721699999999999,-3.259284434166667,[6.0],,10.1016/S0168-583X(98)00122-0,Double anions
mp-555483,SiO2,False,True,4.721699999999999,-3.259284434166667,[2.51],,10.1039/b902348h,Double anions
mp-555483,SiO2,False,True,4.721699999999999,-3.259284434166667,[5.0],,10.1039/b921696k,Double anions
mp-555483,SiO2,False,True,4.721699999999999,-3.259284434166667,[9.0],,10.1039/c1ee01026c,Double anions
mp-555483,SiO2,False,True,4.721699999999999,-3.259284434166667,[3.22],450,10.1039/c2nr30939d,Double anions
mp-555483,SiO2,False,True,4.721699999999999,-3.259284434166667,[9.0],,10.1039/c3tc31172d,Double anions
mp-555483,SiO2,False,True,4.721699999999999,-3.259284434166667,[1.24],,10.1039/c5cp00451a,Double anions
mp-555483,SiO2,False,True,4.721699999999999,-3.259284434166667,[5.91],,10.1039/c5cp07320k,Double anions
mp-555483,SiO2,False,True,4.721699999999999,-3.259284434166667,[3.32],,10.1039/c5cp07320k,Double anions
mp-555483,SiO2,False,True,4.721699999999999,-3.259284434166667,[5.09],,10.1039/c5cp07320k,Double anions
mp-555483,SiO2,False,True,4.721699999999999,-3.259284434166667,[4.92],,10.1039/c5cp07320k,Double anions
mp-555483,SiO2,False,True,4.721699999999999,-3.259284434166667,[9.0],,10.1039/c5nr04354a,Double anions
mp-555483,SiO2,False,True,4.721699999999999,-3.259284434166667,[9.0],,10.1039/c6cp06122b,Double anions
mp-555483,SiO2,False,True,4.721699999999999,-3.259284434166667,[4.89],,10.1039/c6ra26085c,Double anions
mp-555483,SiO2,False,True,4.721699999999999,-3.259284434166667,[0.35],,10.1039/c7cs00836h,Double anions
mp-555483,SiO2,False,True,4.721699999999999,-3.259284434166667,[9.0],,10.1039/c8nr00789f,Double anions
mp-555483,SiO2,False,True,4.721699999999999,-3.259284434166667,[4.0],,10.1039/c8pp00315g,Double anions
mp-555483,SiO2,False,True,4.721699999999999,-3.259284434166667,[8.8],,10.1039/d0tc03942j,Double anions
mp-555483,SiO2,False,True,4.721699999999999,-3.259284434166667,[9.0],,10.1039/c2jm33446a,Double anions
mp-555483,SiO2,False,True,4.721699999999999,-3.259284434166667,[3.28],,10.1039/c3nr01314f,Double anions
mp-555483,SiO2,False,True,4.721699999999999,-3.259284434166667,[3.2],,10.1039/c4mh00176a,Double anions
mp-555483,SiO2,False,True,4.721699999999999,-3.259284434166667,[9.5],,10.1039/c4nr03691c,Double anions
mp-555483,SiO2,False,True,4.721699999999999,-3.259284434166667,[10.0],,10.1039/c4nr03691c,Double anions
mp-555483,SiO2,False,True,4.721699999999999,-3.259284434166667,[0.0001],,10.1039/c4nr06470d,Double anions
mp-555483,SiO2,False,True,4.721699999999999,-3.259284434166667,[8.9],,10.1039/c4ra10726h,Double anions
mp-555483,SiO2,False,True,4.721699999999999,-3.259284434166667,[5.3],,10.1039/c5cp06775h,Double anions
mp-555483,SiO2,False,True,4.721699999999999,-3.259284434166667,[5.2],,10.1039/c5cp06775h,Double anions
mp-555483,SiO2,False,True,4.721699999999999,-3.259284434166667,[8.9],,10.1039/c5cp06775h,Double anions
mp-555483,SiO2,False,True,4.721699999999999,-3.259284434166667,[4.24],,10.1039/c5ra25859f,Double anions
mp-555483,SiO2,False,True,4.721699999999999,-3.259284434166667,[8.5],,10.1039/c5tc03896k,Double anions
mp-555483,SiO2,False,True,4.721699999999999,-3.259284434166667,[6.0],,10.1039/c6cp03361j,Double anions
mp-555483,SiO2,False,True,4.721699999999999,-3.259284434166667,[9.3],,10.1039/c6nr08555e,Double anions
mp-555483,SiO2,False,True,4.721699999999999,-3.259284434166667,[2.11],,10.1039/c7cp03815a,Double anions
mp-555483,SiO2,False,True,4.721699999999999,-3.259284434166667,[7.6],,10.1039/c8cp02742k,Double anions
mp-555483,SiO2,False,True,4.721699999999999,-3.259284434166667,[7.0],,10.1039/c8cy00991k,Double anions
mp-555483,SiO2,False,True,4.721699999999999,-3.259284434166667,[7.38],,10.1039/c9fd00090a,Double anions
mp-555483,SiO2,False,True,4.721699999999999,-3.259284434166667,[9.0],,10.1039/c9ta03026c,Double anions
mp-555483,SiO2,False,True,4.721699999999999,-3.259284434166667,[1.86],,10.1039/d0nj00996b,Double anions
mp-555483,SiO2,False,True,4.721699999999999,-3.259284434166667,[9.0],,10.1039/d0ra00034e,Double anions
mp-555483,SiO2,False,True,4.721699999999999,-3.259284434166667,[9.0],,10.1039/d0ta02755c,Double anions
mp-555483,SiO2,False,True,4.721699999999999,-3.259284434166667,[8.0],,10.1039/b009569i,Double anions
mp-555483,SiO2,False,True,4.721699999999999,-3.259284434166667,[8.8],,10.1039/b402302a,Double anions
mp-555483,SiO2,False,True,4.721699999999999,-3.259284434166667,[9.0],,10.1039/c3nr34178j,Double anions
mp-555483,SiO2,False,True,4.721699999999999,-3.259284434166667,[8.0],,10.1039/c6tc03725a,Double anions
mp-555483,SiO2,False,True,4.721699999999999,-3.259284434166667,[2.4],,10.1039/c2jm31902k,Double anions
mp-555483,SiO2,False,True,4.721699999999999,-3.259284434166667,[6.0],,10.1039/c5cp04010h,Double anions
mp-555483,SiO2,False,True,4.721699999999999,-3.259284434166667,[9.0],,10.1039/c6ra02700h,Double anions
mp-555483,SiO2,False,True,4.721699999999999,-3.259284434166667,[8.7],,10.1039/c7cp04914e,Double anions
mp-555483,SiO2,False,True,4.721699999999999,-3.259284434166667,[2.2],,10.1039/c8nr07395c,Double anions
mp-555483,SiO2,False,True,4.721699999999999,-3.259284434166667,[8.0],,10.1039/c3tc32282c,Double anions
mp-555483,SiO2,False,True,4.721699999999999,-3.259284434166667,[9.0],,10.1039/c4nr07663j,Double anions
mp-555483,SiO2,False,True,4.721699999999999,-3.259284434166667,[8.9],,10.1039/c3tc31589d,Double anions
mp-555483,SiO2,False,True,4.721699999999999,-3.259284434166667,[2.3],,10.1039/c9nr09622a,Double anions
mp-555483,SiO2,False,True,4.721699999999999,-3.259284434166667,[5.0],~1670,10.1007/s00340-016-6633-3,Double anions
mp-555483,SiO2,False,True,4.721699999999999,-3.259284434166667,[8.9],,10.1007/s10853-016-9811-0,Double anions
mp-555483,SiO2,False,True,4.721699999999999,-3.259284434166667,[9.0],,10.1007/s10854-006-0015-2,Double anions
mp-555483,SiO2,False,True,4.721699999999999,-3.259284434166667,[3.5],,10.1007/s10854-006-0015-2,Double anions
mp-555483,SiO2,False,True,4.721699999999999,-3.259284434166667,[3.28],,10.1007/s10854-007-9243-3,Double anions
mp-555483,SiO2,False,True,4.721699999999999,-3.259284434166667,[11.0],,10.1007/s10854-015-3198-6,Double anions
mp-555483,SiO2,False,True,4.721699999999999,-3.259284434166667,[5.0],,10.1007/s10854-015-3198-6,Double anions
mp-555483,SiO2,False,True,4.721699999999999,-3.259284434166667,[1.36],,10.1007/s10895-016-1824-1,Double anions
mp-555483,SiO2,False,True,4.721699999999999,-3.259284434166667,[2.07],,10.1007/s10904-016-0463-y,Double anions
mp-555483,SiO2,False,True,4.721699999999999,-3.259284434166667,[3.18],,10.1007/s10934-018-0604-5,Double anions
mp-555483,SiO2,False,True,4.721699999999999,-3.259284434166667,[4.9],,10.1007/s10971-014-3564-5,Double anions
mp-555483,SiO2,False,True,4.721699999999999,-3.259284434166667,[9.0],,10.1007/s12034-016-1205-z,Double anions
mp-555483,SiO2,False,True,4.721699999999999,-3.259284434166667,[5.0],,10.1007/s12598-020-01511-4,Double anions
mp-555483,SiO2,False,True,4.721699999999999,-3.259284434166667,[3.3],,10.1038/ncomms7785,Double anions
mp-555483,SiO2,False,True,4.721699999999999,-3.259284434166667,[1.0],,10.1038/srep22216,Double anions
mp-555483,SiO2,False,True,4.721699999999999,-3.259284434166667,[8.0],,10.1134/S0030400X20100173,Double anions
mp-555483,SiO2,False,True,4.721699999999999,-3.259284434166667,[5.7],,10.1007/s00542-017-3633-0,Double anions
mp-555483,SiO2,False,True,4.721699999999999,-3.259284434166667,[6.9],,10.1007/s10562-009-0066-0,Double anions
mp-555483,SiO2,False,True,4.721699999999999,-3.259284434166667,[8.9],,10.1007/s10562-014-1386-2,Double anions
mp-555483,SiO2,False,True,4.721699999999999,-3.259284434166667,[8.9],,10.1007/s10853-020-04531-8,Double anions
mp-555483,SiO2,False,True,4.721699999999999,-3.259284434166667,[5.0],,10.1007/s10854-016-4519-0,Double anions
mp-555483,SiO2,False,True,4.721699999999999,-3.259284434166667,[2.75],,10.1007/s10971-020-05408-7,Double anions
mp-555483,SiO2,False,True,4.721699999999999,-3.259284434166667,[3.25],,10.1007/s11581-019-02886-w,Double anions
mp-555483,SiO2,False,True,4.721699999999999,-3.259284434166667,[9.0],,10.1038/s41598-017-07379-2,Double anions
mp-555483,SiO2,False,True,4.721699999999999,-3.259284434166667,[9.0],,10.1038/srep26324,Double anions
mp-555483,SiO2,False,True,4.721699999999999,-3.259284434166667,[9.1],,10.1134/S0030400X1912035X,Double anions
mp-555483,SiO2,False,True,4.721699999999999,-3.259284434166667,[2.9],,10.1134/S0030400X1912035X,Double anions
mp-555483,SiO2,False,True,4.721699999999999,-3.259284434166667,[8.7],,10.1134/S1063782618100020,Double anions
mp-555483,SiO2,False,True,4.721699999999999,-3.259284434166667,[1.5],,10.1186/2193-1801-2-151,Double anions
mp-555483,SiO2,False,True,4.721699999999999,-3.259284434166667,[3.25],,10.1007/s10853-009-3444-5,Double anions