mpids,formula,is_stable,theoretical,band_gap,formation_energy_per_atom,Value,Temperature_raw_value,DOI,compound_type
mp-390,TiO2,True,False,2.0586,-3.508055451944444,[3.2],,10.1039/c3ra41324a,Double anions
mp-390,TiO2,True,False,2.0586,-3.508055451944444,[3.2],,10.1039/c3ra42427h,Double anions
mp-390,TiO2,True,False,2.0586,-3.508055451944444,[3.2],,10.1039/c3ra43416h,Double anions
mp-390,TiO2,True,False,2.0586,-3.508055451944444,[3.2],,10.1039/c3ra46851h,Double anions
mp-390,TiO2,True,False,2.0586,-3.508055451944444,[3.09],,10.1039/c3ra47974a,Double anions
mp-390,TiO2,True,False,2.0586,-3.508055451944444,[3.2],,10.1039/c3ta10320j,Double anions
mp-390,TiO2,True,False,2.0586,-3.508055451944444,[3.0],,10.1039/c3ta11176h,Double anions
mp-390,TiO2,True,False,2.0586,-3.508055451944444,[3.2],,10.1039/c3ta12577g,Double anions
mp-390,TiO2,True,False,2.0586,-3.508055451944444,[3.2],,10.1039/c3ta14108j,Double anions
mp-390,TiO2,True,False,2.0586,-3.508055451944444,[3.2],,10.1039/c3tb00227f,Double anions
mp-390,TiO2,True,False,2.0586,-3.508055451944444,[3.2],,10.1039/c4an01084a,Double anions
mp-390,TiO2,True,False,2.0586,-3.508055451944444,[3.37],300,10.1039/c4cc04908j,Double anions
mp-390,TiO2,True,False,2.0586,-3.508055451944444,[3.2],,10.1039/c4cp03885a,Double anions
mp-390,TiO2,True,False,2.0586,-3.508055451944444,[3.2],,10.1039/c4cy00042k,Double anions
mp-390,TiO2,True,False,2.0586,-3.508055451944444,[3.12],,10.1039/c4fd00155a,Double anions
mp-390,TiO2,True,False,2.0586,-3.508055451944444,[3.0],,10.1039/c4fd00264d,Double anions
mp-390,TiO2,True,False,2.0586,-3.508055451944444,[3.2],,10.1039/c4nj01436g,Double anions
mp-390,TiO2,True,False,2.0586,-3.508055451944444,[3.2],,10.1039/c4nj01798f,Double anions
mp-390,TiO2,True,False,2.0586,-3.508055451944444,[3.1],,10.1039/c4nr02417f,Double anions
mp-390,TiO2,True,False,2.0586,-3.508055451944444,[2.83],,10.1039/c4nr05905k,Double anions
mp-390,TiO2,True,False,2.0586,-3.508055451944444,[3.0],,10.1039/c4ra01458h,Double anions
mp-390,TiO2,True,False,2.0586,-3.508055451944444,[3.2],,10.1039/c4ra01496k,Double anions
mp-390,TiO2,True,False,2.0586,-3.508055451944444,[3.2],,10.1039/c4ra02602k,Double anions
mp-390,TiO2,True,False,2.0586,-3.508055451944444,[3.2],,10.1039/c4ra02679a,Double anions
mp-390,TiO2,True,False,2.0586,-3.508055451944444,[3.2],,10.1039/c4ra04260c,Double anions
mp-390,TiO2,True,False,2.0586,-3.508055451944444,[1.0],,10.1039/c4ra04260c,Double anions
mp-390,TiO2,True,False,2.0586,-3.508055451944444,[1.85],,10.1039/c4ra04260c,Double anions
mp-390,TiO2,True,False,2.0586,-3.508055451944444,[3.2],,10.1039/c4ra07498j,Double anions
mp-390,TiO2,True,False,2.0586,-3.508055451944444,[3.2],,10.1039/c4ra15416a,Double anions
mp-390,TiO2,True,False,2.0586,-3.508055451944444,[3.2],,10.1039/c4ra16397d,Double anions
mp-390,TiO2,True,False,2.0586,-3.508055451944444,[3.2],,10.1039/c4ta05620e,Double anions
mp-390,TiO2,True,False,2.0586,-3.508055451944444,[3.2],,10.1039/c4tb00973h,Double anions
mp-390,TiO2,True,False,2.0586,-3.508055451944444,[3.0],300,10.1039/c4tc02099e,Double anions
mp-390,TiO2,True,False,2.0586,-3.508055451944444,[3.2],,10.1039/c4tc02284j,Double anions
mp-390,TiO2,True,False,2.0586,-3.508055451944444,[1.5],,10.1039/c5cc03666f,Double anions
mp-390,TiO2,True,False,2.0586,-3.508055451944444,[3.2],,10.1039/c5cc09176d,Double anions
mp-390,TiO2,True,False,2.0586,-3.508055451944444,[3.2],,10.1039/c5ce00804b,Double anions
mp-390,TiO2,True,False,2.0586,-3.508055451944444,[3.2],,10.1039/c5ce00883b,Double anions
mp-390,TiO2,True,False,2.0586,-3.508055451944444,[3.9],,10.1039/c5cp04013b,Double anions
mp-390,TiO2,True,False,2.0586,-3.508055451944444,[3.2],,10.1039/c5cp04495b,Double anions
mp-390,TiO2,True,False,2.0586,-3.508055451944444,[3.2],,10.1039/c5cp05005g,Double anions
mp-390,TiO2,True,False,2.0586,-3.508055451944444,[3.32],,10.1039/c5cp05679a,Double anions
mp-390,TiO2,True,False,2.0586,-3.508055451944444,[2.85],,10.1039/c5cp06274h,Double anions
mp-390,TiO2,True,False,2.0586,-3.508055451944444,[2.8],,10.1039/c5cp06274h,Double anions
mp-390,TiO2,True,False,2.0586,-3.508055451944444,[3.2],,10.1039/c5cp06274h,Double anions
mp-390,TiO2,True,False,2.0586,-3.508055451944444,[3.2],,10.1039/c5dt02747k,Double anions
mp-390,TiO2,True,False,2.0586,-3.508055451944444,[3.2],,10.1039/c5dt05011a,Double anions
mp-390,TiO2,True,False,2.0586,-3.508055451944444,[2.3],,10.1039/c5nr03689e,Double anions
mp-390,TiO2,True,False,2.0586,-3.508055451944444,[3.2],,10.1039/c5nr07589k,Double anions
mp-390,TiO2,True,False,2.0586,-3.508055451944444,[3.2],,10.1039/c5nr08796a,Double anions
mp-390,TiO2,True,False,2.0586,-3.508055451944444,[3.2],,10.1039/c5pp00097a,Double anions
mp-390,TiO2,True,False,2.0586,-3.508055451944444,[3.2],,10.1039/c5ra01620g,Double anions
mp-390,TiO2,True,False,2.0586,-3.508055451944444,[2.85],,10.1039/c5ra04524j,Double anions
mp-390,TiO2,True,False,2.0586,-3.508055451944444,[3.2],,10.1039/c5ra07092a,Double anions
mp-390,TiO2,True,False,2.0586,-3.508055451944444,[3.2],,10.1039/c5ra07525d,Double anions
mp-390,TiO2,True,False,2.0586,-3.508055451944444,[3.2],,10.1039/c5ra09585a,Double anions
mp-390,TiO2,True,False,2.0586,-3.508055451944444,[3.2],,10.1039/c5ra09787h,Double anions
mp-390,TiO2,True,False,2.0586,-3.508055451944444,[3.0],,10.1039/c5ra09787h,Double anions
mp-390,TiO2,True,False,2.0586,-3.508055451944444,[3.2],,10.1039/c5ra11526d,Double anions
mp-390,TiO2,True,False,2.0586,-3.508055451944444,[3.3],,10.1039/c5ra13198g,Double anions
mp-390,TiO2,True,False,2.0586,-3.508055451944444,[3.2],,10.1039/c5ra13198g,Double anions
mp-390,TiO2,True,False,2.0586,-3.508055451944444,[2.4],,10.1039/c5ra13198g,Double anions
mp-390,TiO2,True,False,2.0586,-3.508055451944444,[3.2],,10.1039/c5ra13291f,Double anions
mp-390,TiO2,True,False,2.0586,-3.508055451944444,[3.0],,10.1039/c5ra15923g,Double anions
mp-390,TiO2,True,False,2.0586,-3.508055451944444,[3.32],,10.1039/c5ra16172j,Double anions
mp-390,TiO2,True,False,2.0586,-3.508055451944444,[3.2],,10.1039/c5ra21344d,Double anions
mp-390,TiO2,True,False,2.0586,-3.508055451944444,[3.2],,10.1039/c5ra22459d,Double anions
mp-390,TiO2,True,False,2.0586,-3.508055451944444,[3.3],,10.1039/c5ra24676h,Double anions
mp-390,TiO2,True,False,2.0586,-3.508055451944444,[3.1],,10.1039/c5ra24676h,Double anions
mp-390,TiO2,True,False,2.0586,-3.508055451944444,[3.2],,10.1039/c5ta06950e,Double anions
mp-390,TiO2,True,False,2.0586,-3.508055451944444,[3.2],,10.1039/c5ta06982c,Double anions
mp-390,TiO2,True,False,2.0586,-3.508055451944444,[3.2],,10.1039/c5ta07922e,Double anions
mp-390,TiO2,True,False,2.0586,-3.508055451944444,[3.3],,10.1039/c5ta09174h,Double anions
mp-390,TiO2,True,False,2.0586,-3.508055451944444,[3.2],,10.1039/c5tx00312a,Double anions
mp-390,TiO2,True,False,2.0586,-3.508055451944444,[3.2],,10.1039/c6an01123c,Double anions
mp-390,TiO2,True,False,2.0586,-3.508055451944444,[3.1],,10.1039/c6cc00910g,Double anions
mp-390,TiO2,True,False,2.0586,-3.508055451944444,[3.0],,10.1039/c6cc02041k,Double anions
mp-390,TiO2,True,False,2.0586,-3.508055451944444,[3.2],,10.1039/c6cp00077k,Double anions
mp-390,TiO2,True,False,2.0586,-3.508055451944444,[3.2],,10.1039/c6cp01013j,Double anions
mp-390,TiO2,True,False,2.0586,-3.508055451944444,[3.2],,10.1039/c6cp02561g,Double anions
mp-390,TiO2,True,False,2.0586,-3.508055451944444,[3.2],,10.1039/c6cp05739j,Double anions
mp-390,TiO2,True,False,2.0586,-3.508055451944444,[3.6],,10.1039/c6cp07364f,Double anions
mp-390,TiO2,True,False,2.0586,-3.508055451944444,[2.7],,10.1039/c6cy02006b,Double anions
mp-390,TiO2,True,False,2.0586,-3.508055451944444,[3.2],,10.1039/c6nr09217a,Double anions
mp-390,TiO2,True,False,2.0586,-3.508055451944444,[3.2],,10.1039/c6qi00194g,Double anions
mp-390,TiO2,True,False,2.0586,-3.508055451944444,[3.2],,10.1039/c6qm00141f,Double anions
mp-390,TiO2,True,False,2.0586,-3.508055451944444,[3.43],,10.1039/c6ra01149g,Double anions
mp-390,TiO2,True,False,2.0586,-3.508055451944444,[3.2],,10.1039/c6ra01689h,Double anions
mp-390,TiO2,True,False,2.0586,-3.508055451944444,[3.2],,10.1039/c6ra02763f,Double anions
mp-390,TiO2,True,False,2.0586,-3.508055451944444,[3.16],,10.1039/c6ra04979f,Double anions
mp-390,TiO2,True,False,2.0586,-3.508055451944444,[3.2],,10.1039/c6ra15028d,Double anions
mp-390,TiO2,True,False,2.0586,-3.508055451944444,[3.102],,10.1039/c6ra16708j,Double anions
mp-390,TiO2,True,False,2.0586,-3.508055451944444,[3.2],,10.1039/c6ra17597j,Double anions
mp-390,TiO2,True,False,2.0586,-3.508055451944444,[3.2],,10.1039/c6ra22894a,Double anions
mp-390,TiO2,True,False,2.0586,-3.508055451944444,[3.2],,10.1039/c6ra23151a,Double anions
mp-390,TiO2,True,False,2.0586,-3.508055451944444,[3.2],,10.1039/c6ra28224e,Double anions
mp-390,TiO2,True,False,2.0586,-3.508055451944444,[3.2],,10.1039/c6ta01928e,Double anions
mp-390,TiO2,True,False,2.0586,-3.508055451944444,[2.8],,10.1039/c6tc04153a,Double anions
mp-390,TiO2,True,False,2.0586,-3.508055451944444,[3.2],,10.1039/c6tc04847a,Double anions
mp-390,TiO2,True,False,2.0586,-3.508055451944444,[0.7],,10.1039/c7an00783c,Double anions
mp-390,TiO2,True,False,2.0586,-3.508055451944444,[3.0],,10.1039/c7cc01444a,Double anions
mp-390,TiO2,True,False,2.0586,-3.508055451944444,[3.2],,10.1039/c7cc07365h,Double anions
mp-390,TiO2,True,False,2.0586,-3.508055451944444,[3.2],,10.1039/c7cp04196a,Double anions
mp-390,TiO2,True,False,2.0586,-3.508055451944444,[3.2],,10.1039/c7cp06527b,Double anions
mp-390,TiO2,True,False,2.0586,-3.508055451944444,[3.2],,10.1039/c7dt00345e,Double anions
mp-390,TiO2,True,False,2.0586,-3.508055451944444,[5.0],,10.1039/c7ja00285h,Double anions
mp-390,TiO2,True,False,2.0586,-3.508055451944444,[3.0],,10.1039/c7nj02143g,Double anions
mp-390,TiO2,True,False,2.0586,-3.508055451944444,[0.1],,10.1039/c7nj02143g,Double anions
mp-390,TiO2,True,False,2.0586,-3.508055451944444,[3.2],,10.1039/c7nj02435e,Double anions
mp-390,TiO2,True,False,2.0586,-3.508055451944444,[3.5],,10.1039/c7nj02435e,Double anions
mp-390,TiO2,True,False,2.0586,-3.508055451944444,[1.9],,10.1039/c7nr01417a,Double anions
mp-390,TiO2,True,False,2.0586,-3.508055451944444,[3.2],,10.1039/c7nr09415a,Double anions
mp-390,TiO2,True,False,2.0586,-3.508055451944444,[3.21],,10.1039/c7pp00256d,Double anions
mp-390,TiO2,True,False,2.0586,-3.508055451944444,[3.2],,10.1039/c7qi00491e,Double anions
mp-390,TiO2,True,False,2.0586,-3.508055451944444,[3.2],,10.1039/c7qi00828g,Double anions
mp-390,TiO2,True,False,2.0586,-3.508055451944444,[3.2],,10.1039/c7ra06960j,Double anions
mp-390,TiO2,True,False,2.0586,-3.508055451944444,[3.01],,10.1039/c7ra07770j,Double anions
mp-390,TiO2,True,False,2.0586,-3.508055451944444,[3.2],,10.1039/c7ra09613e,Double anions
mp-390,TiO2,True,False,2.0586,-3.508055451944444,[3.28],,10.1039/c7ra10974a,Double anions
mp-390,TiO2,True,False,2.0586,-3.508055451944444,[3.3],,10.1039/c7ra13222k,Double anions
mp-390,TiO2,True,False,2.0586,-3.508055451944444,[3.22],,10.1039/c7se00523g,Double anions
mp-390,TiO2,True,False,2.0586,-3.508055451944444,[3.27],,10.1039/c7ta02655b,Double anions
mp-390,TiO2,True,False,2.0586,-3.508055451944444,[3.2],,10.1039/c7ta05033j,Double anions
mp-390,TiO2,True,False,2.0586,-3.508055451944444,[3.2],,10.1039/c8an00118a,Double anions
mp-390,TiO2,True,False,2.0586,-3.508055451944444,[3.2],,10.1039/c8an00609a,Double anions
mp-390,TiO2,True,False,2.0586,-3.508055451944444,[3.2],,10.1039/c8cp06889e,Double anions
mp-390,TiO2,True,False,2.0586,-3.508055451944444,[3.2],,10.1039/c8cy00519b,Double anions
mp-390,TiO2,True,False,2.0586,-3.508055451944444,[2.79],,10.1039/c8na00300a,Double anions
mp-390,TiO2,True,False,2.0586,-3.508055451944444,[3.2],,10.1039/c8nj02903b,Double anions
mp-390,TiO2,True,False,2.0586,-3.508055451944444,[3.2],,10.1039/c8nj03128b,Double anions
mp-390,TiO2,True,False,2.0586,-3.508055451944444,[3.2],,10.1039/c8nj04554b,Double anions
mp-390,TiO2,True,False,2.0586,-3.508055451944444,[2.85],,10.1039/c8nj04554b,Double anions
mp-390,TiO2,True,False,2.0586,-3.508055451944444,[3.2],,10.1039/c8nr02115e,Double anions
mp-390,TiO2,True,False,2.0586,-3.508055451944444,[3.78],,10.1039/c8nr02286k,Double anions
mp-390,TiO2,True,False,2.0586,-3.508055451944444,[3.2],,10.1039/c8nr02532k,Double anions
mp-390,TiO2,True,False,2.0586,-3.508055451944444,[3.2],,10.1039/c8nr07475e,Double anions
mp-390,TiO2,True,False,2.0586,-3.508055451944444,[3.15],,10.1039/c8qi00355f,Double anions
mp-390,TiO2,True,False,2.0586,-3.508055451944444,[3.2],,10.1039/c8ra02349b,Double anions
mp-390,TiO2,True,False,2.0586,-3.508055451944444,[3.2],,10.1039/c8ra03961e,Double anions
mp-390,TiO2,True,False,2.0586,-3.508055451944444,[2.1],,10.1039/c8ra04344b,Double anions
mp-390,TiO2,True,False,2.0586,-3.508055451944444,[3.2],,10.1039/c8ra05345f,Double anions
mp-390,TiO2,True,False,2.0586,-3.508055451944444,[3.0],,10.1039/c8ta01270a,Double anions
mp-390,TiO2,True,False,2.0586,-3.508055451944444,[3.02],,10.1039/c8ta08841a,Double anions
mp-390,TiO2,True,False,2.0586,-3.508055451944444,[3.1],,10.1039/c8ta09358j,Double anions
mp-390,TiO2,True,False,2.0586,-3.508055451944444,[3.1],,10.1039/c8ta12255e,Double anions
mp-390,TiO2,True,False,2.0586,-3.508055451944444,[3.2],,10.1039/c9an00234k,Double anions
mp-390,TiO2,True,False,2.0586,-3.508055451944444,[2.2],,10.1039/c9cc08578e,Double anions
mp-390,TiO2,True,False,2.0586,-3.508055451944444,[2.41],,10.1039/c9cy02366f,Double anions
mp-390,TiO2,True,False,2.0586,-3.508055451944444,[3.2],,10.1039/c9en00264b,Double anions
mp-390,TiO2,True,False,2.0586,-3.508055451944444,[3.2],,10.1039/c9en00666d,Double anions
mp-390,TiO2,True,False,2.0586,-3.508055451944444,[3.6],,10.1039/c9me00157c,Double anions
mp-390,TiO2,True,False,2.0586,-3.508055451944444,[2.7],,10.1039/c9na00437h,Double anions
mp-390,TiO2,True,False,2.0586,-3.508055451944444,[3.26],,10.1039/c9nh00590k,Double anions
mp-390,TiO2,True,False,2.0586,-3.508055451944444,[3.2],,10.1039/c9nj02219h,Double anions
mp-390,TiO2,True,False,2.0586,-3.508055451944444,[3.2],,10.1039/c9ra01025d,Double anions
mp-390,TiO2,True,False,2.0586,-3.508055451944444,[3.2],,10.1039/c9ra08655b,Double anions
mp-390,TiO2,True,False,2.0586,-3.508055451944444,[3.2],,10.1039/c9ra10804a,Double anions
mp-390,TiO2,True,False,2.0586,-3.508055451944444,[3.2],,10.1039/c9ra10899h,Double anions
mp-390,TiO2,True,False,2.0586,-3.508055451944444,[3.2],,10.1039/c9se01068h,Double anions
mp-390,TiO2,True,False,2.0586,-3.508055451944444,[1.54],,10.1039/c9ta11839j,Double anions
mp-390,TiO2,True,False,2.0586,-3.508055451944444,[3.2],,10.1039/c9tc03398j,Double anions
mp-390,TiO2,True,False,2.0586,-3.508055451944444,[3.06],,10.1039/d0bm01290d,Double anions
mp-390,TiO2,True,False,2.0586,-3.508055451944444,[3.2],,10.1039/d0cc01456g,Double anions
mp-390,TiO2,True,False,2.0586,-3.508055451944444,[2.48],,10.1039/d0cy01394c,Double anions
mp-390,TiO2,True,False,2.0586,-3.508055451944444,[3.2],,10.1039/d0ra05607c,Double anions
mp-390,TiO2,True,False,2.0586,-3.508055451944444,[3.19],,10.1039/d0ra06864k,Double anions
mp-390,TiO2,True,False,2.0586,-3.508055451944444,[2.68],,10.1039/d0se01132k,Double anions
mp-390,TiO2,True,False,2.0586,-3.508055451944444,[2.9],,10.1039/d0se01132k,Double anions
mp-390,TiO2,True,False,2.0586,-3.508055451944444,[2.78],,10.1039/d0se01132k,Double anions
mp-390,TiO2,True,False,2.0586,-3.508055451944444,[3.2],,10.1039/d0ta03114c,Double anions
mp-390,TiO2,True,False,2.0586,-3.508055451944444,[3.0],,10.1039/d0ta06281b,Double anions
mp-390,TiO2,True,False,2.0586,-3.508055451944444,[3.1],,10.1039/d0ta07282f,Double anions
mp-390,TiO2,True,False,2.0586,-3.508055451944444,[3.0],900,10.1039/b200964a,Double anions
mp-390,TiO2,True,False,2.0586,-3.508055451944444,[3.0],,10.1039/b200964a,Double anions
mp-390,TiO2,True,False,2.0586,-3.508055451944444,[2.23],,10.1039/b302418k,Double anions
mp-390,TiO2,True,False,2.0586,-3.508055451944444,[3.2],,10.1039/b800596f,Double anions
mp-390,TiO2,True,False,2.0586,-3.508055451944444,[3.2],,10.1039/b804321n,Double anions
mp-390,TiO2,True,False,2.0586,-3.508055451944444,[3.2],,10.1039/b817049e,Double anions
mp-390,TiO2,True,False,2.0586,-3.508055451944444,[3.2],,10.1039/b819167k,Double anions
mp-390,TiO2,True,False,2.0586,-3.508055451944444,[0.25],,10.1039/b821991e,Double anions
mp-390,TiO2,True,False,2.0586,-3.508055451944444,[3.12],,10.1039/b821991e,Double anions
mp-390,TiO2,True,False,2.0586,-3.508055451944444,[2.94],,10.1039/b908226c,Double anions
mp-390,TiO2,True,False,2.0586,-3.508055451944444,[2.17],,10.1039/b918282a,Double anions
mp-390,TiO2,True,False,2.0586,-3.508055451944444,[3.2],,10.1039/b924052g,Double anions
mp-390,TiO2,True,False,2.0586,-3.508055451944444,[3.0],,10.1039/c003115a,Double anions
mp-390,TiO2,True,False,2.0586,-3.508055451944444,[3.2],,10.1039/c0cc00540a,Double anions
mp-390,TiO2,True,False,2.0586,-3.508055451944444,[3.2],,10.1039/c0cc00642d,Double anions
mp-390,TiO2,True,False,2.0586,-3.508055451944444,[3.2],,10.1039/c0cc04658b,Double anions
mp-390,TiO2,True,False,2.0586,-3.508055451944444,[3.14],,10.1039/c0jm01471k,Double anions
mp-390,TiO2,True,False,2.0586,-3.508055451944444,[3.0],,10.1039/c0lc00689k,Double anions
mp-390,TiO2,True,False,2.0586,-3.508055451944444,[3.0],298,10.1039/c1cc11716e,Double anions
mp-390,TiO2,True,False,2.0586,-3.508055451944444,[0.0],,10.1039/c1cp20911f,Double anions
mp-390,TiO2,True,False,2.0586,-3.508055451944444,[3.28],,10.1039/c1cy00104c,Double anions
mp-390,TiO2,True,False,2.0586,-3.508055451944444,[2.48],,10.1039/c1jm10942a,Double anions
mp-390,TiO2,True,False,2.0586,-3.508055451944444,[3.03],,10.1039/c1jm11437a,Double anions
mp-390,TiO2,True,False,2.0586,-3.508055451944444,[3.6],,10.1039/c1jm15047b,Double anions
mp-390,TiO2,True,False,2.0586,-3.508055451944444,[3.2],,10.1039/c1nr10247h,Double anions
mp-390,TiO2,True,False,2.0586,-3.508055451944444,[3.2],,10.1039/c1nr10340g,Double anions
mp-390,TiO2,True,False,2.0586,-3.508055451944444,[3.2],,10.1039/c2an16268g,Double anions
mp-390,TiO2,True,False,2.0586,-3.508055451944444,[3.0],,10.1039/c2cc37212f,Double anions
mp-390,TiO2,True,False,2.0586,-3.508055451944444,[3.2],,10.1039/c2ce25504a,Double anions
mp-390,TiO2,True,False,2.0586,-3.508055451944444,[3.2],,10.1039/c2cp23684b,Double anions
mp-390,TiO2,True,False,2.0586,-3.508055451944444,[3.2],,10.1039/c2cp40120g,Double anions
mp-390,TiO2,True,False,2.0586,-3.508055451944444,[3.2],,10.1039/c2cp42350b,Double anions
mp-390,TiO2,True,False,2.0586,-3.508055451944444,[3.2],,10.1039/c2cp43524a,Double anions
mp-390,TiO2,True,False,2.0586,-3.508055451944444,[3.2],,10.1039/c2dt31634j,Double anions
mp-390,TiO2,True,False,2.0586,-3.508055451944444,[3.2],,10.1039/c2ee21166a,Double anions
mp-390,TiO2,True,False,2.0586,-3.508055451944444,[2.8],,10.1039/c2ee22238h,Double anions
mp-390,TiO2,True,False,2.0586,-3.508055451944444,[1.94],,10.1039/c2ee22930g,Double anions
mp-390,TiO2,True,False,2.0586,-3.508055451944444,[3.2],,10.1039/c2ee22930g,Double anions
mp-390,TiO2,True,False,2.0586,-3.508055451944444,[2.12],,10.1039/c2ee22930g,Double anions
mp-390,TiO2,True,False,2.0586,-3.508055451944444,[3.2],,10.1039/c2jm15908b,Double anions
mp-390,TiO2,True,False,2.0586,-3.508055451944444,[3.2],,10.1039/c2jm16924j,Double anions
mp-390,TiO2,True,False,2.0586,-3.508055451944444,[3.2],,10.1039/c2jm31522j,Double anions
mp-390,TiO2,True,False,2.0586,-3.508055451944444,[3.16],,10.1039/c2jm32478d,Double anions
mp-390,TiO2,True,False,2.0586,-3.508055451944444,[3.3],,10.1039/c2jm34904c,Double anions
mp-390,TiO2,True,False,2.0586,-3.508055451944444,[3.37],,10.1039/c2nj20959d,Double anions
mp-390,TiO2,True,False,2.0586,-3.508055451944444,[3.2],,10.1039/c2nj41011g,Double anions
mp-390,TiO2,True,False,2.0586,-3.508055451944444,[3.2],,10.1039/c2nr11938b,Double anions
mp-390,TiO2,True,False,2.0586,-3.508055451944444,[2.21],,10.1039/c2nr30388d,Double anions
mp-390,TiO2,True,False,2.0586,-3.508055451944444,[3.2],,10.1039/c2nr33563h,Double anions
mp-390,TiO2,True,False,2.0586,-3.508055451944444,[3.2],,10.1039/c2pp25227a,Double anions
mp-390,TiO2,True,False,2.0586,-3.508055451944444,[3.2],,10.1039/c2ra01030e,Double anions