mpids,formula,is_stable,theoretical,band_gap,formation_energy_per_atom,Value,Temperature_raw_value,DOI,compound_type
mp-25279,V2O5,True,False,2.161,-2.2890218171428582,[2.0],,10.1016/j.tsf.2007.04.165,Double anions
mp-25279,V2O5,True,False,2.161,-2.2890218171428582,[1.57],300,10.1016/j.tsf.2007.04.165,Double anions
mp-25279,V2O5,True,False,2.161,-2.2890218171428582,[2.5],,10.1016/j.tsf.2007.08.113,Double anions
mp-25279,V2O5,True,False,2.161,-2.2890218171428582,[2.52],,10.1016/j.tsf.2007.08.113,Double anions
mp-25279,V2O5,True,False,2.161,-2.2890218171428582,[2.5],,10.1016/j.tsf.2010.11.001,Double anions
mp-25279,V2O5,True,False,2.161,-2.2890218171428582,[2.42],200,10.1016/j.tsf.2010.11.001,Double anions
mp-25279,V2O5,True,False,2.161,-2.2890218171428582,[2.3],,10.1016/j.tsf.2012.03.026,Double anions
mp-25279,V2O5,True,False,2.161,-2.2890218171428582,[2.8],,10.1016/j.tsf.2013.05.144,Double anions
mp-25279,V2O5,True,False,2.161,-2.2890218171428582,[0.7],,10.1016/j.tsf.2016.11.041,Double anions
mp-25279,V2O5,True,False,2.161,-2.2890218171428582,[2.3],,10.1016/j.tsf.2019.04.018,Double anions
mp-25279,V2O5,True,False,2.161,-2.2890218171428582,[2.4],,10.1016/S0040-6090(00)01003-8,Double anions
mp-25279,V2O5,True,False,2.161,-2.2890218171428582,[2.2],,10.1016/S0040-6090(00)01674-6,Double anions
mp-25279,V2O5,True,False,2.161,-2.2890218171428582,[2.4],,10.1039/b612489e,Double anions
mp-25279,V2O5,True,False,2.161,-2.2890218171428582,[2.33],,10.1039/c4nj01807a,Double anions
mp-25279,V2O5,True,False,2.161,-2.2890218171428582,[2.64],,10.1039/c4nj01807a,Double anions
mp-25279,V2O5,True,False,2.161,-2.2890218171428582,[2.8],,10.1039/c4nr00024b,Double anions
mp-25279,V2O5,True,False,2.161,-2.2890218171428582,[2.0],,10.1039/c4ra03291h,Double anions
mp-25279,V2O5,True,False,2.161,-2.2890218171428582,[2.3],,10.1039/c4ra08931f,Double anions
mp-25279,V2O5,True,False,2.161,-2.2890218171428582,[1.94],,10.1039/c4ta01033g,Double anions
mp-25279,V2O5,True,False,2.161,-2.2890218171428582,[3.0],,10.1039/c5ra11682a,Double anions
mp-25279,V2O5,True,False,2.161,-2.2890218171428582,[2.3],,10.1039/c8nj02506a,Double anions
mp-25279,V2O5,True,False,2.161,-2.2890218171428582,[3.3],,10.1039/c9cp04357h,Double anions
mp-25279,V2O5,True,False,2.161,-2.2890218171428582,[2.0],,10.1039/c9en00891h,Double anions
mp-25279,V2O5,True,False,2.161,-2.2890218171428582,[2.26],,10.1039/c9ra02923k,Double anions
mp-25279,V2O5,True,False,2.161,-2.2890218171428582,[3.0],,10.1039/c2jm30462g,Double anions
mp-25279,V2O5,True,False,2.161,-2.2890218171428582,[2.2],,10.1039/c3nr01577g,Double anions
mp-25279,V2O5,True,False,2.161,-2.2890218171428582,[1.91],,10.1039/c4ce00708e,Double anions
mp-25279,V2O5,True,False,2.161,-2.2890218171428582,[2.36],,10.1039/c5nj01582k,Double anions
mp-25279,V2O5,True,False,2.161,-2.2890218171428582,[2.02],,10.1039/c5ra05015d,Double anions
mp-25279,V2O5,True,False,2.161,-2.2890218171428582,[2.3],,10.1039/c6ra03376h,Double anions
mp-25279,V2O5,True,False,2.161,-2.2890218171428582,[2.1],,10.1039/c6ra09109a,Double anions
mp-25279,V2O5,True,False,2.161,-2.2890218171428582,[2.2],,10.1039/c6ra09109a,Double anions
mp-25279,V2O5,True,False,2.161,-2.2890218171428582,[2.36],,10.1039/c6ra09109a,Double anions
mp-25279,V2O5,True,False,2.161,-2.2890218171428582,[2.63],,10.1039/c6tc04050k,Double anions
mp-25279,V2O5,True,False,2.161,-2.2890218171428582,[2.3],,10.1039/c7en01031a,Double anions
mp-25279,V2O5,True,False,2.161,-2.2890218171428582,[3.2],,10.1039/c7ta05969h,Double anions
mp-25279,V2O5,True,False,2.161,-2.2890218171428582,[2.15],,10.1039/c7ta05969h,Double anions
mp-25279,V2O5,True,False,2.161,-2.2890218171428582,[2.0],,10.1039/c8cp00992a,Double anions
mp-25279,V2O5,True,False,2.161,-2.2890218171428582,[0.5],,10.1039/c8cp00992a,Double anions
mp-25279,V2O5,True,False,2.161,-2.2890218171428582,[1.0],,10.1039/c9ra01520e,Double anions
mp-25279,V2O5,True,False,2.161,-2.2890218171428582,[2.5],,10.1039/d0dt03177a,Double anions
mp-25279,V2O5,True,False,2.161,-2.2890218171428582,[2.8],,10.1039/c5cs00831j,Double anions
mp-25279,V2O5,True,False,2.161,-2.2890218171428582,[2.3],,10.1039/c5ra06531c,Double anions
mp-25279,V2O5,True,False,2.161,-2.2890218171428582,[2.3],,10.1039/c7ra06657k,Double anions
mp-25279,V2O5,True,False,2.161,-2.2890218171428582,[2.24],,10.1039/c7ra09473f,Double anions
mp-25279,V2O5,True,False,2.161,-2.2890218171428582,[2.07],,10.1039/c9ta09258g,Double anions
mp-25279,V2O5,True,False,2.161,-2.2890218171428582,[2.8],,10.1039/c4dt02863e,Double anions
mp-25279,V2O5,True,False,2.161,-2.2890218171428582,[2.8],,10.1039/c5ce00034c,Double anions
mp-25279,V2O5,True,False,2.161,-2.2890218171428582,[1.94],,10.1039/c6ta04986a,Double anions
mp-25279,V2O5,True,False,2.161,-2.2890218171428582,[2.5],,10.1039/c8cy00564h,Double anions
mp-25279,V2O5,True,False,2.161,-2.2890218171428582,[2.2],,10.1039/c8dt02445f,Double anions
mp-25279,V2O5,True,False,2.161,-2.2890218171428582,[2.3],,10.1039/d0nr03889j,Double anions
mp-25279,V2O5,True,False,2.161,-2.2890218171428582,[2.2],,10.1007/s00339-020-04076-2,Double anions
mp-25279,V2O5,True,False,2.161,-2.2890218171428582,[2.53],,10.1007/s00339-020-04076-2,Double anions
mp-25279,V2O5,True,False,2.161,-2.2890218171428582,[2.3],,10.1007/s13204-013-0231-z,Double anions
mp-25279,V2O5,True,False,2.161,-2.2890218171428582,[2.3],,10.1007/s40195-017-0611-6,Double anions
mp-25279,V2O5,True,False,2.161,-2.2890218171428582,[2.19],,10.1007/s40195-017-0611-6,Double anions
mp-25279,V2O5,True,False,2.161,-2.2890218171428582,[2.6],,10.1007/s00339-020-04023-1,Double anions
mp-25279,V2O5,True,False,2.161,-2.2890218171428582,[2.44],,10.1007/s40436-013-0045-y,Double anions
mp-25279,V2O5,True,False,2.161,-2.2890218171428582,[2.16],,10.1007/s00339-012-7444-y,Double anions
mp-25279,V2O5,True,False,2.161,-2.2890218171428582,[2.45],,10.1007/s00339-019-2736-0,Double anions
mp-25279,V2O5,True,False,2.161,-2.2890218171428582,[2.3],,10.1007/s00339-020-03770-5,Double anions
mp-25279,V2O5,True,False,2.161,-2.2890218171428582,[2.44],,10.1007/s10008-016-3491-1,Double anions
mp-25279,V2O5,True,False,2.161,-2.2890218171428582,[2.13],350,10.1007/s10854-016-4338-3,Double anions
mp-25279,V2O5,True,False,2.161,-2.2890218171428582,[2.47],,10.1007/s10854-017-8191-9,Double anions
mp-25279,V2O5,True,False,2.161,-2.2890218171428582,[2.31],300,10.1007/s10854-020-03596-0,Double anions
mp-25279,V2O5,True,False,2.161,-2.2890218171428582,[1.56],,10.1007/s10854-020-04620-z,Double anions
mp-25279,V2O5,True,False,2.161,-2.2890218171428582,[2.25],,10.1007/s10854-020-04620-z,Double anions
mp-25279,V2O5,True,False,2.161,-2.2890218171428582,[3.02],,10.1007/s13204-019-00967-w,Double anions
mp-25279,V2O5,True,False,2.161,-2.2890218171428582,[2.4],300,10.1134/S1063783420010175,Double anions
mp-25279,V2O5,True,False,2.161,-2.2890218171428582,[2.3],,10.1007/s10854-018-9984-1,Double anions
mp-25279,V2O5,True,False,2.161,-2.2890218171428582,[2.748],,10.1007/s11581-019-03259-z,Double anions
mp-25279,V2O5,True,False,2.161,-2.2890218171428582,[2.52],,10.1007/s42452-020-03689-9,Double anions
mp-25279,V2O5,True,False,2.161,-2.2890218171428582,[2.2],,10.1007/s00604-020-4182-2,Double anions
mp-25279,V2O5,True,False,2.161,-2.2890218171428582,[2.3],,10.1007/s10853-013-7927-z,Double anions
mp-25279,V2O5,True,False,2.161,-2.2890218171428582,[2.47],,10.1007/s10854-019-01211-5,Double anions
mp-25279,V2O5,True,False,2.161,-2.2890218171428582,[2.18],,10.1007/s11051-012-1167-z,Double anions
mp-25279,V2O5,True,False,2.161,-2.2890218171428582,[2.4],,10.1007/s11051-012-1201-1,Double anions
mp-25279,V2O5,True,False,2.161,-2.2890218171428582,[2.25],,10.1007/s11237-016-9438-x,Double anions
mp-25279,V2O5,True,False,2.161,-2.2890218171428582,[2.24],,10.1007/s10311-019-00957-y,Double anions
mp-25279,V2O5,True,False,2.161,-2.2890218171428582,[2.38],300,10.1007/s10853-008-3004-4,Double anions
mp-25279,V2O5,True,False,2.161,-2.2890218171428582,[3.1],,10.1007/s10854-020-03844-3,Double anions
mp-25279,V2O5,True,False,2.161,-2.2890218171428582,[2.527],,10.1007/s10904-020-01751-y,Double anions
mp-25279,V2O5,True,False,2.161,-2.2890218171428582,[2.55],,10.1007/s10973-020-09725-5,Double anions
mp-25279,V2O5,True,False,2.161,-2.2890218171428582,[2.34],,10.1021/jacs.5b03986,Double anions
mp-25279,V2O5,True,False,2.161,-2.2890218171428582,[2.49],,10.1021/jacs.5b03986,Double anions
mp-25279,V2O5,True,False,2.161,-2.2890218171428582,[2.54],,10.1021/jacs.5b03986,Double anions
mp-25279,V2O5,True,False,2.161,-2.2890218171428582,[2.3],,10.1021/jacs.5b03986,Double anions
mp-25279,V2O5,True,False,2.161,-2.2890218171428582,[2.36],,10.1021/jacs.5b03986,Double anions
mp-25279,V2O5,True,False,2.161,-2.2890218171428582,[2.32],,10.1021/jacs.5b03986,Double anions
mp-25279,V2O5,True,False,2.161,-2.2890218171428582,[1.95],,10.1021/jacs.5b03986,Double anions
mp-1253,BaSe,True,False,1.948799999999999,-2.283761781171875,[1.76],,10.1016/j.physb.2005.08.032,Chalcogenides
mp-1253,BaSe,True,False,1.948799999999999,-2.283761781171875,[1.843],,10.1007/s10948-018-4948-5,Chalcogenides
mp-1253,BaSe,True,False,1.948799999999999,-2.283761781171875,[3.6],,10.1021/jacs.5b03986,Chalcogenides
mp-27130,Li2W2O7,False,False,3.7425,-2.28143384151515,[4.35],,10.1007/s10973-017-6355-8,Double anions
mp-19097,FeBO3,True,False,1.481599999999999,-2.270362331833334,[2.35],,10.1007/s10008-020-04836-3,Halides
mp-886,Ga2O3,True,False,2.007799999999999,-2.268996668999999,[4.9],,10.1016/j.cej.2013.09.088,Double anions
mp-886,Ga2O3,True,False,2.007799999999999,-2.268996668999999,[3.9],,10.1016/j.cej.2017.07.121,Double anions
mp-886,Ga2O3,True,False,2.007799999999999,-2.268996668999999,[2.22],,10.1016/j.jece.2016.04.019,Double anions
mp-886,Ga2O3,True,False,2.007799999999999,-2.268996668999999,[0.03],,10.1016/j.optmat.2019.109223,Double anions
mp-886,Ga2O3,True,False,2.007799999999999,-2.268996668999999,[4.7],,10.1016/j.tsf.2010.05.078,Double anions
mp-886,Ga2O3,True,False,2.007799999999999,-2.268996668999999,[4.8],,10.1016/j.tsf.2016.06.048,Double anions
mp-886,Ga2O3,True,False,2.007799999999999,-2.268996668999999,[4.9],,10.1016/j.tsf.2016.09.005,Double anions
mp-886,Ga2O3,True,False,2.007799999999999,-2.268996668999999,[4.7],,10.1016/S0040-6090(99)00796-8,Double anions
mp-886,Ga2O3,True,False,2.007799999999999,-2.268996668999999,[4.7],,10.1039/b907933e,Double anions
mp-886,Ga2O3,True,False,2.007799999999999,-2.268996668999999,[4.9],,10.1039/c0cs00126k,Double anions
mp-886,Ga2O3,True,False,2.007799999999999,-2.268996668999999,[4.9],,10.1039/c0nr00702a,Double anions
mp-886,Ga2O3,True,False,2.007799999999999,-2.268996668999999,[0.7],,10.1039/c4cp05637j,Double anions
mp-886,Ga2O3,True,False,2.007799999999999,-2.268996668999999,[4.95],,10.1039/c4ta05007j,Double anions
mp-886,Ga2O3,True,False,2.007799999999999,-2.268996668999999,[4.9],,10.1039/c4ta05007j,Double anions
mp-886,Ga2O3,True,False,2.007799999999999,-2.268996668999999,[4.07],,10.1039/c7cy00040e,Double anions
mp-886,Ga2O3,True,False,2.007799999999999,-2.268996668999999,[4.8],,10.1039/c7ra10341g,Double anions
mp-886,Ga2O3,True,False,2.007799999999999,-2.268996668999999,[4.9],,10.1039/c7tc03746e,Double anions
mp-886,Ga2O3,True,False,2.007799999999999,-2.268996668999999,[4.9],,10.1039/c9tc02055a,Double anions
mp-886,Ga2O3,True,False,2.007799999999999,-2.268996668999999,[5.0],,10.1039/c9tc02910a,Double anions
mp-886,Ga2O3,True,False,2.007799999999999,-2.268996668999999,[4.99],,10.1039/c9tc06767a,Double anions
mp-886,Ga2O3,True,False,2.007799999999999,-2.268996668999999,[4.59],,10.1039/c1jm11606a,Double anions
mp-886,Ga2O3,True,False,2.007799999999999,-2.268996668999999,[4.9],,10.1039/c2jm33189f,Double anions
mp-886,Ga2O3,True,False,2.007799999999999,-2.268996668999999,[4.9],,10.1039/c3tc30848k,Double anions
mp-886,Ga2O3,True,False,2.007799999999999,-2.268996668999999,[4.9],,10.1039/c4cp02788d,Double anions
mp-886,Ga2O3,True,False,2.007799999999999,-2.268996668999999,[4.8],,10.1039/c6cp07973c,Double anions
mp-886,Ga2O3,True,False,2.007799999999999,-2.268996668999999,[4.8],,10.1039/c6ra16317c,Double anions
mp-886,Ga2O3,True,False,2.007799999999999,-2.268996668999999,[4.9],,10.1039/c6ra16317c,Double anions
mp-886,Ga2O3,True,False,2.007799999999999,-2.268996668999999,[0.65],,10.1039/c7cp08565f,Double anions
mp-886,Ga2O3,True,False,2.007799999999999,-2.268996668999999,[4.8],,10.1039/c7ra05692c,Double anions
mp-886,Ga2O3,True,False,2.007799999999999,-2.268996668999999,[4.9],,10.1039/c8cs00255j,Double anions
mp-886,Ga2O3,True,False,2.007799999999999,-2.268996668999999,[4.43],,10.1039/c8ra02212g,Double anions
mp-886,Ga2O3,True,False,2.007799999999999,-2.268996668999999,[4.9],,10.1039/c8ra02466a,Double anions
mp-886,Ga2O3,True,False,2.007799999999999,-2.268996668999999,[4.91],,10.1039/c8tc04157a,Double anions
mp-886,Ga2O3,True,False,2.007799999999999,-2.268996668999999,[2.0],,10.1039/c9fd90023c,Double anions
mp-886,Ga2O3,True,False,2.007799999999999,-2.268996668999999,[4.0],,10.1039/c9ra09521g,Double anions
mp-886,Ga2O3,True,False,2.007799999999999,-2.268996668999999,[2.11],,10.1039/c9ra09521g,Double anions
mp-886,Ga2O3,True,False,2.007799999999999,-2.268996668999999,[4.9],,10.1039/c9tc00134d,Double anions
mp-886,Ga2O3,True,False,2.007799999999999,-2.268996668999999,[4.46],,10.1039/d0en00259c,Double anions
mp-886,Ga2O3,True,False,2.007799999999999,-2.268996668999999,[4.8],,10.1039/c4nr02933j,Double anions
mp-886,Ga2O3,True,False,2.007799999999999,-2.268996668999999,[0.95],,10.1039/c4nr02933j,Double anions
mp-886,Ga2O3,True,False,2.007799999999999,-2.268996668999999,[4.6],,10.1039/c5cy01280e,Double anions
mp-886,Ga2O3,True,False,2.007799999999999,-2.268996668999999,[4.9],,10.1039/c8tc01122b,Double anions
mp-886,Ga2O3,True,False,2.007799999999999,-2.268996668999999,[4.97],,10.1039/c9tc06011a,Double anions
mp-886,Ga2O3,True,False,2.007799999999999,-2.268996668999999,[2.98],,10.1039/c9tc06011a,Double anions
mp-886,Ga2O3,True,False,2.007799999999999,-2.268996668999999,[4.8],,10.1039/d0nr06319c,Double anions
mp-886,Ga2O3,True,False,2.007799999999999,-2.268996668999999,[4.4],,10.1039/c6ta01016d,Double anions
mp-886,Ga2O3,True,False,2.007799999999999,-2.268996668999999,[4.9],,10.1039/c8ra10371b,Double anions
mp-886,Ga2O3,True,False,2.007799999999999,-2.268996668999999,[4.9],,10.1039/b108167e,Double anions
mp-886,Ga2O3,True,False,2.007799999999999,-2.268996668999999,[4.9],,10.1039/c7ce00553a,Double anions
mp-886,Ga2O3,True,False,2.007799999999999,-2.268996668999999,[4.8],,10.1039/c2nr31428b,Double anions
mp-886,Ga2O3,True,False,2.007799999999999,-2.268996668999999,[5.3],,10.1039/d0tc02743j,Double anions
mp-886,Ga2O3,True,False,2.007799999999999,-2.268996668999999,[1.12],,10.1007/s00339-016-0576-8,Double anions
mp-886,Ga2O3,True,False,2.007799999999999,-2.268996668999999,[5.0],,10.1007/s10825-020-01469-7,Double anions
mp-886,Ga2O3,True,False,2.007799999999999,-2.268996668999999,[4.8],,10.1007/s10825-020-01469-7,Double anions
mp-886,Ga2O3,True,False,2.007799999999999,-2.268996668999999,[4.9],,10.1007/s10854-011-0433-7,Double anions
mp-886,Ga2O3,True,False,2.007799999999999,-2.268996668999999,[4.9],,10.1186/s11671-020-3271-9,Double anions
mp-886,Ga2O3,True,False,2.007799999999999,-2.268996668999999,[4.9],,10.1007/s00339-016-0200-y,Double anions
mp-886,Ga2O3,True,False,2.007799999999999,-2.268996668999999,[4.9],,10.1007/s10008-018-4082-0,Double anions
mp-886,Ga2O3,True,False,2.007799999999999,-2.268996668999999,[4.9],,10.1007/s10854-013-1533-3,Double anions
mp-886,Ga2O3,True,False,2.007799999999999,-2.268996668999999,[5.0],,10.1007/s10854-016-4519-0,Double anions
mp-886,Ga2O3,True,False,2.007799999999999,-2.268996668999999,[4.9],,10.1007/s10854-019-01631-3,Double anions
mp-886,Ga2O3,True,False,2.007799999999999,-2.268996668999999,[4.82],1073,10.1007/s11082-020-02306-8,Double anions
mp-886,Ga2O3,True,False,2.007799999999999,-2.268996668999999,[4.8],,10.1007/s10853-005-5655-8,Double anions
mp-886,Ga2O3,True,False,2.007799999999999,-2.268996668999999,[0.4],,10.1007/s10853-011-6134-z,Double anions
mp-886,Ga2O3,True,False,2.007799999999999,-2.268996668999999,[4.9],,10.1007/s10853-011-6134-z,Double anions
mp-886,Ga2O3,True,False,2.007799999999999,-2.268996668999999,[4.8],,10.1007/s10853-019-03359-1,Double anions
mp-886,Ga2O3,True,False,2.007799999999999,-2.268996668999999,[5.68],,10.1007/s10854-013-1165-7,Double anions
mp-886,Ga2O3,True,False,2.007799999999999,-2.268996668999999,[4.9],,10.1007/s10854-013-1165-7,Double anions
mp-886,Ga2O3,True,False,2.007799999999999,-2.268996668999999,[3.63],,10.1007/s10854-014-2105-x,Double anions
mp-886,Ga2O3,True,False,2.007799999999999,-2.268996668999999,[4.91],,10.1007/s10854-015-3909-z,Double anions
mp-886,Ga2O3,True,False,2.007799999999999,-2.268996668999999,[4.9],,10.1007/s10854-015-3909-z,Double anions
mp-886,Ga2O3,True,False,2.007799999999999,-2.268996668999999,[4.8],,10.1007/s11051-007-9231-9,Double anions
mp-886,Ga2O3,True,False,2.007799999999999,-2.268996668999999,[2.83],,10.1007/s11051-007-9231-9,Double anions
mp-886,Ga2O3,True,False,2.007799999999999,-2.268996668999999,[4.8],250,10.1186/s11671-019-2991-1,Double anions
mp-886,Ga2O3,True,False,2.007799999999999,-2.268996668999999,[0.03],,10.1007/s10853-019-03663-w,Double anions
mp-886,Ga2O3,True,False,2.007799999999999,-2.268996668999999,[0.9],,10.1007/s10853-019-03663-w,Double anions
mp-886,Ga2O3,True,False,2.007799999999999,-2.268996668999999,[3.22],,10.1007/s40820-020-00419-z,Double anions
mp-886,Ga2O3,True,False,2.007799999999999,-2.268996668999999,[3.89],,10.1007/s40820-020-00419-z,Double anions
mp-886,Ga2O3,True,False,2.007799999999999,-2.268996668999999,[4.9],,10.1007/s42452-020-03344-3,Double anions
mp-886,Ga2O3,True,False,2.007799999999999,-2.268996668999999,[4.8],,10.1186/s11671-020-03324-x,Double anions
mp-886,Ga2O3,True,False,2.007799999999999,-2.268996668999999,[4.8],,10.1007/s10853-020-04600-y,Double anions
mp-886,Ga2O3,True,False,2.007799999999999,-2.268996668999999,[4.8],,10.1007/s10909-018-1985-1,Double anions
mp-886,Ga2O3,True,False,2.007799999999999,-2.268996668999999,[4.9],,10.1186/s11671-016-1448-z,Double anions
mp-886,Ga2O3,True,False,2.007799999999999,-2.268996668999999,[4.51],,10.1186/s11671-016-1448-z,Double anions
mp-886,Ga2O3,True,False,2.007799999999999,-2.268996668999999,[4.8],,10.1007/s00339-014-8428-x,Double anions
mp-886,Ga2O3,True,False,2.007799999999999,-2.268996668999999,[4.9],,10.1007/s10854-014-1986-z,Double anions
mp-886,Ga2O3,True,False,2.007799999999999,-2.268996668999999,[4.9],300,10.1007/s10854-016-6311-6,Double anions
mp-886,Ga2O3,True,False,2.007799999999999,-2.268996668999999,[3.5],,10.1007/s10854-019-02175-2,Double anions
mp-886,Ga2O3,True,False,2.007799999999999,-2.268996668999999,[4.54],,10.1021/jacs.5b03986,Double anions
mp-886,Ga2O3,True,False,2.007799999999999,-2.268996668999999,[4.4],,10.1021/jacs.5b03986,Double anions
mp-2980,Pr2Te4O11,True,False,3.3043,-2.264977823235294,[3.65],,10.1021/ja034196p,Double anions
mp-562065,PO2,False,False,4.5183,-2.264104192380951,[1.56],,10.1016/j.physb.2010.12.005,Double anions
mp-562065,PO2,False,False,4.5183,-2.264104192380951,[3.36],,10.1016/j.physb.2012.02.044,Double anions
mp-510490,GdScS3,True,False,1.1773999999999991,-2.262208397687499,[2.1],,10.1016/j.jssc.2009.02.020,Chalcogenides
mp-1080650,BaCuSF,False,False,1.6223,-2.261379652499999,[3.1],,10.1016/j.tsf.2003.08.034,Halides
mp-1080650,BaCuSF,False,False,1.6223,-2.261379652499999,[2.3],,10.1016/j.tsf.2007.10.073,Halides
mp-23295,RbCl,True,False,4.8388,-2.24487251375,[8.29],,10.1021/jacs.5b03986,Halides
mp-23295,RbCl,True,False,4.8388,-2.24487251375,[8.5],,10.1021/jacs.5b03986,Halides
mp-23295,RbCl,True,False,4.8388,-2.24487251375,[8.3],,10.1021/jacs.5b03986,Halides
mp-23295,RbCl,True,False,4.8388,-2.24487251375,[8.1],,10.1021/jacs.5b03986,Halides
mp-23295,RbCl,True,False,4.8388,-2.24487251375,[8.2],,10.1021/jacs.5b03986,Halides
mp-680761,Cd3(PO4)2,True,False,2.5482,-2.2433336802655672,[4.95],,10.1016/j.matpr.2019.04.109,Oxides