mpids,formula,is_stable,theoretical,band_gap,formation_energy_per_atom,Value,Temperature_raw_value,DOI,compound_type
mp-390,TiO2,True,False,2.0586,-3.508055451944444,[3.2],,10.1007/s11051-020-05072-6,Double anions
mp-390,TiO2,True,False,2.0586,-3.508055451944444,[3.45],,10.1007/s11051-020-05072-6,Double anions
mp-390,TiO2,True,False,2.0586,-3.508055451944444,[3.21],,10.1007/s11082-016-0435-z,Double anions
mp-390,TiO2,True,False,2.0586,-3.508055451944444,[3.2],,10.1007/s11082-016-0435-z,Double anions
mp-390,TiO2,True,False,2.0586,-3.508055451944444,[3.2],,10.1007/s11082-016-0677-9,Double anions
mp-390,TiO2,True,False,2.0586,-3.508055451944444,[3.4],,10.1007/s11082-016-0677-9,Double anions
mp-390,TiO2,True,False,2.0586,-3.508055451944444,[3.2],,10.1007/s11144-009-0059-4,Double anions
mp-390,TiO2,True,False,2.0586,-3.508055451944444,[3.2],,10.1007/s11144-011-0283-6,Double anions
mp-390,TiO2,True,False,2.0586,-3.508055451944444,[2.0],,10.1007/s11144-011-0338-8,Double anions
mp-390,TiO2,True,False,2.0586,-3.508055451944444,[3.03],,10.1007/s11144-012-0442-4,Double anions
mp-390,TiO2,True,False,2.0586,-3.508055451944444,[3.2],,10.1007/s11144-012-0493-6,Double anions
mp-390,TiO2,True,False,2.0586,-3.508055451944444,[3.1],,10.1007/s11144-014-0783-2,Double anions
mp-390,TiO2,True,False,2.0586,-3.508055451944444,[3.2],,10.1007/s11144-016-1090-x,Double anions
mp-390,TiO2,True,False,2.0586,-3.508055451944444,[3.2],,10.1007/s11144-017-1320-x,Double anions
mp-390,TiO2,True,False,2.0586,-3.508055451944444,[3.25],,10.1007/s11164-011-0369-9,Double anions
mp-390,TiO2,True,False,2.0586,-3.508055451944444,[3.2],,10.1007/s11164-012-0618-6,Double anions
mp-390,TiO2,True,False,2.0586,-3.508055451944444,[3.2],,10.1007/s11164-012-0783-7,Double anions
mp-390,TiO2,True,False,2.0586,-3.508055451944444,[2.14],,10.1007/s11164-012-0783-7,Double anions
mp-390,TiO2,True,False,2.0586,-3.508055451944444,[2.13],,10.1007/s11164-012-0897-y,Double anions
mp-390,TiO2,True,False,2.0586,-3.508055451944444,[3.2],,10.1007/s11164-012-0897-y,Double anions
mp-390,TiO2,True,False,2.0586,-3.508055451944444,[3.2],,10.1007/s11164-013-1327-5,Double anions
mp-390,TiO2,True,False,2.0586,-3.508055451944444,[3.2],,10.1007/s11164-013-1481-9,Double anions
mp-390,TiO2,True,False,2.0586,-3.508055451944444,[3.2],,10.1007/s11164-015-2000-y,Double anions
mp-390,TiO2,True,False,2.0586,-3.508055451944444,[3.01],,10.1007/s11164-015-2000-y,Double anions
mp-390,TiO2,True,False,2.0586,-3.508055451944444,[3.2],,10.1007/s11164-015-2297-6,Double anions
mp-390,TiO2,True,False,2.0586,-3.508055451944444,[3.2],,10.1007/s11164-015-2349-y,Double anions
mp-390,TiO2,True,False,2.0586,-3.508055451944444,[3.2],,10.1007/s11164-016-2460-8,Double anions
mp-390,TiO2,True,False,2.0586,-3.508055451944444,[3.2],,10.1007/s11164-017-3046-9,Double anions
mp-390,TiO2,True,False,2.0586,-3.508055451944444,[3.2],,10.1007/s11164-017-3244-5,Double anions
mp-390,TiO2,True,False,2.0586,-3.508055451944444,[3.2],,10.1007/s11164-018-3585-8,Double anions
mp-390,TiO2,True,False,2.0586,-3.508055451944444,[2.84],,10.1007/s11164-018-3585-8,Double anions
mp-390,TiO2,True,False,2.0586,-3.508055451944444,[3.2],,10.1007/s11164-020-04289-3,Double anions
mp-390,TiO2,True,False,2.0586,-3.508055451944444,[3.1],,10.1007/s11237-019-09608-3,Double anions
mp-390,TiO2,True,False,2.0586,-3.508055451944444,[3.0],,10.1007/s11244-007-9037-0,Double anions
mp-390,TiO2,True,False,2.0586,-3.508055451944444,[3.2],,10.1007/s11244-011-9614-0,Double anions
mp-390,TiO2,True,False,2.0586,-3.508055451944444,[3.2],,10.1007/s11244-014-0348-7,Double anions
mp-390,TiO2,True,False,2.0586,-3.508055451944444,[3.3],,10.1007/s11244-014-0348-7,Double anions
mp-390,TiO2,True,False,2.0586,-3.508055451944444,[3.0],,10.1007/s11244-014-0348-7,Double anions
mp-390,TiO2,True,False,2.0586,-3.508055451944444,[3.22],,10.1007/s11244-015-0434-5,Double anions
mp-390,TiO2,True,False,2.0586,-3.508055451944444,[3.2],,10.1007/s11244-018-0959-5,Double anions
mp-390,TiO2,True,False,2.0586,-3.508055451944444,[3.3],,10.1007/s11244-020-01253-8,Double anions
mp-390,TiO2,True,False,2.0586,-3.508055451944444,[3.2],,10.1007/s11244-020-01313-z,Double anions
mp-390,TiO2,True,False,2.0586,-3.508055451944444,[3.1],,10.1007/s11244-020-01313-z,Double anions
mp-390,TiO2,True,False,2.0586,-3.508055451944444,[2.93],,10.1007/s11244-020-01347-3,Double anions
mp-390,TiO2,True,False,2.0586,-3.508055451944444,[3.2],,10.1007/s11270-015-2396-4,Double anions
mp-390,TiO2,True,False,2.0586,-3.508055451944444,[3.2],,10.1007/s11270-017-3313-9,Double anions
mp-390,TiO2,True,False,2.0586,-3.508055451944444,[2.48],,10.1007/s11356-012-0872-6,Double anions
mp-390,TiO2,True,False,2.0586,-3.508055451944444,[3.15],,10.1007/s11356-012-0872-6,Double anions
mp-390,TiO2,True,False,2.0586,-3.508055451944444,[3.2],,10.1007/s11356-014-2868-x,Double anions
mp-390,TiO2,True,False,2.0586,-3.508055451944444,[3.2],,10.1007/s11356-015-4910-z,Double anions
mp-390,TiO2,True,False,2.0586,-3.508055451944444,[3.2],,10.1007/s11356-016-6984-7,Double anions
mp-390,TiO2,True,False,2.0586,-3.508055451944444,[3.2],,10.1007/s11356-016-7714-x,Double anions
mp-390,TiO2,True,False,2.0586,-3.508055451944444,[3.0],,10.1007/s11356-016-8156-1,Double anions
mp-390,TiO2,True,False,2.0586,-3.508055451944444,[3.18],,10.1007/s11356-016-8328-z,Double anions
mp-390,TiO2,True,False,2.0586,-3.508055451944444,[3.2],,10.1007/s11356-017-0663-1,Double anions
mp-390,TiO2,True,False,2.0586,-3.508055451944444,[3.2],,10.1007/s11356-018-1716-9,Double anions
mp-390,TiO2,True,False,2.0586,-3.508055451944444,[3.2],,10.1007/s11356-018-2695-6,Double anions
mp-390,TiO2,True,False,2.0586,-3.508055451944444,[3.26],,10.1007/s11356-018-2695-6,Double anions
mp-390,TiO2,True,False,2.0586,-3.508055451944444,[3.23],,10.1007/s11356-019-04277-0,Double anions
mp-390,TiO2,True,False,2.0586,-3.508055451944444,[2.4],,10.1007/s11356-019-04533-3,Double anions
mp-390,TiO2,True,False,2.0586,-3.508055451944444,[3.2],,10.1007/s11356-019-05218-7,Double anions
mp-390,TiO2,True,False,2.0586,-3.508055451944444,[2.88],,10.1007/s11356-019-05374-w,Double anions
mp-390,TiO2,True,False,2.0586,-3.508055451944444,[3.3],,10.1007/s11356-019-06240-5,Double anions
mp-390,TiO2,True,False,2.0586,-3.508055451944444,[3.05],,10.1007/s11356-020-11071-w,Double anions
mp-390,TiO2,True,False,2.0586,-3.508055451944444,[3.2],,10.1007/s11356-020-11220-1,Double anions
mp-390,TiO2,True,False,2.0586,-3.508055451944444,[3.2],,10.1007/s11434-014-0229-2,Double anions
mp-390,TiO2,True,False,2.0586,-3.508055451944444,[2.75],,10.1007/s11434-014-0229-2,Double anions
mp-390,TiO2,True,False,2.0586,-3.508055451944444,[2.97],,10.1007/s11581-018-2628-x,Double anions
mp-390,TiO2,True,False,2.0586,-3.508055451944444,[3.2],,10.1007/s11581-018-2628-x,Double anions
mp-390,TiO2,True,False,2.0586,-3.508055451944444,[3.04],,10.1007/s11665-012-0344-7,Double anions
mp-390,TiO2,True,False,2.0586,-3.508055451944444,[3.2],,10.1007/s11665-014-0954-3,Double anions
mp-390,TiO2,True,False,2.0586,-3.508055451944444,[3.2],,10.1007/s11665-014-1370-4,Double anions
mp-390,TiO2,True,False,2.0586,-3.508055451944444,[3.2],,10.1007/s11665-015-1581-3,Double anions
mp-390,TiO2,True,False,2.0586,-3.508055451944444,[2.9],,10.1007/s11665-020-04823-9,Double anions
mp-390,TiO2,True,False,2.0586,-3.508055451944444,[2.7],,10.1007/s11665-020-04823-9,Double anions
mp-390,TiO2,True,False,2.0586,-3.508055451944444,[3.19],,10.1007/s11665-020-04823-9,Double anions
mp-390,TiO2,True,False,2.0586,-3.508055451944444,[3.4],,10.1007/s11671-010-9665-3,Double anions
mp-390,TiO2,True,False,2.0586,-3.508055451944444,[3.3],,10.1007/s11671-010-9665-3,Double anions
mp-390,TiO2,True,False,2.0586,-3.508055451944444,[3.2],,10.1007/s11696-018-0395-9,Double anions
mp-390,TiO2,True,False,2.0586,-3.508055451944444,[3.2],,10.1007/s12010-011-9407-8,Double anions
mp-390,TiO2,True,False,2.0586,-3.508055451944444,[3.2],,10.1007/s12034-018-1598-y,Double anions
mp-390,TiO2,True,False,2.0586,-3.508055451944444,[3.05],,10.1007/s12034-018-1598-y,Double anions
mp-390,TiO2,True,False,2.0586,-3.508055451944444,[3.2],,10.1007/s12598-016-0694-7,Double anions
mp-390,TiO2,True,False,2.0586,-3.508055451944444,[3.2],,10.1007/s12598-019-01329-9,Double anions
mp-390,TiO2,True,False,2.0586,-3.508055451944444,[2.54],,10.1007/s12648-012-0207-y,Double anions
mp-390,TiO2,True,False,2.0586,-3.508055451944444,[3.0],,10.1007/s12678-016-0329-7,Double anions
mp-390,TiO2,True,False,2.0586,-3.508055451944444,[3.2],,10.1007/s13204-020-01557-x,Double anions
mp-390,TiO2,True,False,2.0586,-3.508055451944444,[3.2],,10.1007/s13204-020-01614-5,Double anions
mp-390,TiO2,True,False,2.0586,-3.508055451944444,[3.2],,10.1007/s13404-016-0191-7,Double anions
mp-390,TiO2,True,False,2.0586,-3.508055451944444,[3.2],,10.1007/s13738-018-1375-2,Double anions
mp-390,TiO2,True,False,2.0586,-3.508055451944444,[3.1],,10.1007/s13738-020-01993-0,Double anions
mp-390,TiO2,True,False,2.0586,-3.508055451944444,[3.2],,10.1007/s13762-017-1330-2,Double anions
mp-390,TiO2,True,False,2.0586,-3.508055451944444,[3.2],,10.1007/s13762-018-2169-x,Double anions
mp-390,TiO2,True,False,2.0586,-3.508055451944444,[2.98],,10.1007/s13762-019-02604-z,Double anions
mp-390,TiO2,True,False,2.0586,-3.508055451944444,[2.9],,10.1007/s13762-020-02802-0,Double anions
mp-390,TiO2,True,False,2.0586,-3.508055451944444,[3.2],,10.1007/s13762-020-02802-0,Double anions
mp-390,TiO2,True,False,2.0586,-3.508055451944444,[2.58],,10.1007/s40097-020-00349-7,Double anions
mp-390,TiO2,True,False,2.0586,-3.508055451944444,[2.9],,10.1007/s40201-020-00507-7,Double anions
mp-390,TiO2,True,False,2.0586,-3.508055451944444,[2.32],,10.1007/s40201-020-00507-7,Double anions
mp-390,TiO2,True,False,2.0586,-3.508055451944444,[3.2],,10.1007/s40820-019-0362-1,Double anions
mp-390,TiO2,True,False,2.0586,-3.508055451944444,[3.13],,10.1007/s41204-017-0032-9,Double anions
mp-390,TiO2,True,False,2.0586,-3.508055451944444,[3.2],,10.1007/s41779-020-00478-w,Double anions
mp-390,TiO2,True,False,2.0586,-3.508055451944444,[3.1],,10.1007/s41779-020-00478-w,Double anions
mp-390,TiO2,True,False,2.0586,-3.508055451944444,[3.2],,10.1007/s41918-020-00064-5,Double anions
mp-390,TiO2,True,False,2.0586,-3.508055451944444,[3.46],,10.1007/s41918-020-00064-5,Double anions
mp-390,TiO2,True,False,2.0586,-3.508055451944444,[3.92],,10.1007/s41918-020-00064-5,Double anions
mp-390,TiO2,True,False,2.0586,-3.508055451944444,[3.21],,10.1007/s42114-020-00164-2,Double anions
mp-390,TiO2,True,False,2.0586,-3.508055451944444,[3.2],,10.1007/s42452-019-0504-6,Double anions
mp-390,TiO2,True,False,2.0586,-3.508055451944444,[3.22],,10.1007/s42452-019-0504-6,Double anions
mp-390,TiO2,True,False,2.0586,-3.508055451944444,[3.26],,10.1007/s42452-019-0567-4,Double anions
mp-390,TiO2,True,False,2.0586,-3.508055451944444,[3.2],,10.1007/s42452-020-2207-4,Double anions
mp-390,TiO2,True,False,2.0586,-3.508055451944444,[3.5],,10.1007/s42452-020-2343-x,Double anions
mp-390,TiO2,True,False,2.0586,-3.508055451944444,[3.1],,10.1007/s42452-020-2343-x,Double anions
mp-390,TiO2,True,False,2.0586,-3.508055451944444,[3.2],,10.1007/s42452-020-2722-3,Double anions
mp-390,TiO2,True,False,2.0586,-3.508055451944444,[3.2],,10.1038/ncomms6881,Double anions
mp-390,TiO2,True,False,2.0586,-3.508055451944444,[3.2],,10.1038/s41467-017-00582-9,Double anions
mp-390,TiO2,True,False,2.0586,-3.508055451944444,[3.2],,10.1038/s41467-018-07397-2,Double anions
mp-390,TiO2,True,False,2.0586,-3.508055451944444,[3.2],,10.1038/s41598-017-01244-y,Double anions
mp-390,TiO2,True,False,2.0586,-3.508055451944444,[3.2],,10.1038/s41598-017-05506-7,Double anions
mp-390,TiO2,True,False,2.0586,-3.508055451944444,[3.0],,10.1038/s41598-017-05645-x,Double anions
mp-390,TiO2,True,False,2.0586,-3.508055451944444,[2.5],,10.1038/s41598-017-05645-x,Double anions
mp-390,TiO2,True,False,2.0586,-3.508055451944444,[3.2],,10.1038/s41598-017-06139-6,Double anions
mp-390,TiO2,True,False,2.0586,-3.508055451944444,[3.47],,10.1038/s41598-017-08599-2,Double anions
mp-390,TiO2,True,False,2.0586,-3.508055451944444,[3.35],,10.1038/s41598-017-09826-6,Double anions
mp-390,TiO2,True,False,2.0586,-3.508055451944444,[0.1],,10.1038/s41598-018-26728-3,Double anions
mp-390,TiO2,True,False,2.0586,-3.508055451944444,[3.47],,10.1038/s41598-018-29363-0,Double anions
mp-390,TiO2,True,False,2.0586,-3.508055451944444,[3.2],,10.1038/s41598-018-30726-w,Double anions
mp-390,TiO2,True,False,2.0586,-3.508055451944444,[3.24],,10.1038/s41598-018-30726-w,Double anions
mp-390,TiO2,True,False,2.0586,-3.508055451944444,[1.64],,10.1038/s41598-018-30726-w,Double anions
mp-390,TiO2,True,False,2.0586,-3.508055451944444,[3.2],,10.1038/s41598-018-33772-6,Double anions
mp-390,TiO2,True,False,2.0586,-3.508055451944444,[3.18],,10.1038/s41598-019-53189-z,Double anions
mp-390,TiO2,True,False,2.0586,-3.508055451944444,[3.0],,10.1038/s41598-020-59454-w,Double anions
mp-390,TiO2,True,False,2.0586,-3.508055451944444,[3.26],,10.1038/s41598-020-63623-2,Double anions
mp-390,TiO2,True,False,2.0586,-3.508055451944444,[3.2],,10.1038/s41598-020-70352-z,Double anions
mp-390,TiO2,True,False,2.0586,-3.508055451944444,[3.3],,10.1038/srep03563,Double anions
mp-390,TiO2,True,False,2.0586,-3.508055451944444,[3.2],,10.1038/srep10601,Double anions
mp-390,TiO2,True,False,2.0586,-3.508055451944444,[3.2],,10.1038/srep11482,Double anions
mp-390,TiO2,True,False,2.0586,-3.508055451944444,[3.2],,10.1038/srep15354,Double anions
mp-390,TiO2,True,False,2.0586,-3.508055451944444,[1.8],,10.1038/srep22247,Double anions
mp-390,TiO2,True,False,2.0586,-3.508055451944444,[0.2],,10.1038/srep23209,Double anions
mp-390,TiO2,True,False,2.0586,-3.508055451944444,[3.2],,10.1038/srep23312,Double anions
mp-390,TiO2,True,False,2.0586,-3.508055451944444,[3.2],,10.1038/srep27713,Double anions
mp-390,TiO2,True,False,2.0586,-3.508055451944444,[2.8],,10.1038/srep32171,Double anions
mp-390,TiO2,True,False,2.0586,-3.508055451944444,[3.2],,10.1038/srep44411,Double anions
mp-390,TiO2,True,False,2.0586,-3.508055451944444,[3.2],,10.1038/srep46610,Double anions
mp-390,TiO2,True,False,2.0586,-3.508055451944444,[0.81],,10.1134/S0036024418080162,Double anions
mp-390,TiO2,True,False,2.0586,-3.508055451944444,[3.2],,10.1134/S0036024419030270,Double anions
mp-390,TiO2,True,False,2.0586,-3.508055451944444,[3.2],,10.1186/1556-276X-6-356,Double anions
mp-390,TiO2,True,False,2.0586,-3.508055451944444,[3.2],,10.1186/1556-276X-7-231,Double anions
mp-390,TiO2,True,False,2.0586,-3.508055451944444,[3.2],,10.1186/1556-276X-7-590,Double anions
mp-390,TiO2,True,False,2.0586,-3.508055451944444,[3.2],,10.1186/1556-276X-8-96,Double anions
mp-390,TiO2,True,False,2.0586,-3.508055451944444,[3.2],,10.1186/1556-276X-9-636,Double anions
mp-390,TiO2,True,False,2.0586,-3.508055451944444,[3.2],,10.1186/2052-336X-12-101,Double anions
mp-390,TiO2,True,False,2.0586,-3.508055451944444,[3.3],,10.1186/s11671-015-0745-2,Double anions
mp-390,TiO2,True,False,2.0586,-3.508055451944444,[3.2],,10.1186/s11671-015-0991-3,Double anions
mp-390,TiO2,True,False,2.0586,-3.508055451944444,[3.2],,10.1186/s11671-016-1236-9,Double anions
mp-390,TiO2,True,False,2.0586,-3.508055451944444,[2.74],,10.1186/s11671-016-1811-0,Double anions
mp-390,TiO2,True,False,2.0586,-3.508055451944444,[3.2],,10.1186/s11671-017-2036-6,Double anions
mp-390,TiO2,True,False,2.0586,-3.508055451944444,[3.2],,10.1186/s11671-017-2355-7,Double anions
mp-390,TiO2,True,False,2.0586,-3.508055451944444,[3.2],,10.1186/s11671-019-2897-y,Double anions
mp-390,TiO2,True,False,2.0586,-3.508055451944444,[2.93],,10.1186/s42480-019-0026-4,Double anions
mp-390,TiO2,True,False,2.0586,-3.508055451944444,[3.05],,10.1007/s00170-019-04223-x,Double anions
mp-390,TiO2,True,False,2.0586,-3.508055451944444,[3.2],,10.1007/s00214-018-2229-9,Double anions
mp-390,TiO2,True,False,2.0586,-3.508055451944444,[3.64],,10.1007/s00214-019-2452-z,Double anions
mp-390,TiO2,True,False,2.0586,-3.508055451944444,[3.2],,10.1007/s00339-012-6890-x,Double anions
mp-390,TiO2,True,False,2.0586,-3.508055451944444,[3.2],,10.1007/s00339-014-8433-0,Double anions
mp-390,TiO2,True,False,2.0586,-3.508055451944444,[2.0],,10.1007/s00339-014-8433-0,Double anions
mp-390,TiO2,True,False,2.0586,-3.508055451944444,[0.9],,10.1007/s00339-014-8433-0,Double anions
mp-390,TiO2,True,False,2.0586,-3.508055451944444,[2.04],,10.1007/s00339-014-8433-0,Double anions
mp-390,TiO2,True,False,2.0586,-3.508055451944444,[3.0],,10.1007/s00339-014-8433-0,Double anions
mp-390,TiO2,True,False,2.0586,-3.508055451944444,[3.2],,10.1007/s00339-015-9306-x,Double anions
mp-390,TiO2,True,False,2.0586,-3.508055451944444,[3.2],,10.1007/s00339-016-0243-0,Double anions
mp-390,TiO2,True,False,2.0586,-3.508055451944444,[3.25],,10.1007/s00339-016-0243-0,Double anions
mp-390,TiO2,True,False,2.0586,-3.508055451944444,[3.2],,10.1007/s00339-016-9874-4,Double anions
mp-390,TiO2,True,False,2.0586,-3.508055451944444,[3.3],,10.1007/s00339-017-0837-1,Double anions
mp-390,TiO2,True,False,2.0586,-3.508055451944444,[3.2],,10.1007/s00339-017-1112-1,Double anions
mp-390,TiO2,True,False,2.0586,-3.508055451944444,[2.9],800,10.1007/s00339-017-1191-z,Double anions
mp-390,TiO2,True,False,2.0586,-3.508055451944444,[3.23],700,10.1007/s00339-017-1191-z,Double anions
mp-390,TiO2,True,False,2.0586,-3.508055451944444,[2.9],,10.1007/s00339-017-1191-z,Double anions
mp-390,TiO2,True,False,2.0586,-3.508055451944444,[3.32],,10.1007/s00339-018-2127-y,Double anions
mp-390,TiO2,True,False,2.0586,-3.508055451944444,[3.2],,10.1007/s00339-019-3089-4,Double anions
mp-390,TiO2,True,False,2.0586,-3.508055451944444,[3.2],,10.1007/s00339-019-3147-y,Double anions
mp-390,TiO2,True,False,2.0586,-3.508055451944444,[3.02],,10.1007/s00339-020-03550-1,Double anions
mp-390,TiO2,True,False,2.0586,-3.508055451944444,[3.2],,10.1007/s00339-020-03701-4,Double anions
mp-390,TiO2,True,False,2.0586,-3.508055451944444,[3.2],,10.1007/s00339-020-3338-6,Double anions
mp-390,TiO2,True,False,2.0586,-3.508055451944444,[2.38],,10.1007/s00339-020-3394-y,Double anions
mp-390,TiO2,True,False,2.0586,-3.508055451944444,[3.2],,10.1007/s00449-016-1619-4,Double anions
mp-390,TiO2,True,False,2.0586,-3.508055451944444,[3.28],,10.1007/s00706-011-0631-2,Double anions
mp-390,TiO2,True,False,2.0586,-3.508055451944444,[3.2],,10.1007/s00894-015-2845-4,Double anions
mp-390,TiO2,True,False,2.0586,-3.508055451944444,[3.0],,10.1007/s00894-019-4027-2,Double anions
mp-390,TiO2,True,False,2.0586,-3.508055451944444,[3.5],,10.1007/s10008-007-0393-2,Double anions
mp-390,TiO2,True,False,2.0586,-3.508055451944444,[3.2],,10.1007/s10008-009-0806-5,Double anions
mp-390,TiO2,True,False,2.0586,-3.508055451944444,[2.4],,10.1007/s10008-009-0806-5,Double anions
mp-390,TiO2,True,False,2.0586,-3.508055451944444,[1.7],,10.1007/s10008-009-0806-5,Double anions
mp-390,TiO2,True,False,2.0586,-3.508055451944444,[3.2],,10.1007/s10008-012-1853-x,Double anions
mp-390,TiO2,True,False,2.0586,-3.508055451944444,[0.2],,10.1007/s10008-013-2143-y,Double anions
mp-390,TiO2,True,False,2.0586,-3.508055451944444,[3.2],,10.1007/s10008-014-2524-x,Double anions
mp-390,TiO2,True,False,2.0586,-3.508055451944444,[3.8],,10.1007/s10008-014-2524-x,Double anions
mp-390,TiO2,True,False,2.0586,-3.508055451944444,[3.3],,10.1007/s10008-018-4024-x,Double anions
mp-390,TiO2,True,False,2.0586,-3.508055451944444,[2.64],,10.1007/s10008-018-4089-6,Double anions
mp-390,TiO2,True,False,2.0586,-3.508055451944444,[3.2],,10.1007/s10008-020-04837-2,Double anions
mp-390,TiO2,True,False,2.0586,-3.508055451944444,[3.2],,10.1007/s10098-013-0666-7,Double anions
mp-390,TiO2,True,False,2.0586,-3.508055451944444,[2.93],,10.1007/s10098-016-1181-4,Double anions
mp-390,TiO2,True,False,2.0586,-3.508055451944444,[3.2],,10.1007/s10311-011-0347-x,Double anions
mp-390,TiO2,True,False,2.0586,-3.508055451944444,[0.2],,10.1007/s10311-015-0528-0,Double anions
mp-390,TiO2,True,False,2.0586,-3.508055451944444,[2.81],,10.1007/s10311-015-0528-0,Double anions
mp-390,TiO2,True,False,2.0586,-3.508055451944444,[2.22],,10.1007/s10311-015-0528-0,Double anions