mpids,formula,is_stable,theoretical,band_gap,formation_energy_per_atom,Value,Temperature_raw_value,DOI,compound_type
mp-390,TiO2,True,False,2.0586,-3.508055451944444,[3.2],,10.1016/j.ijhydene.2017.07.153,Double anions
mp-390,TiO2,True,False,2.0586,-3.508055451944444,[3.17],,10.1016/j.ijhydene.2018.12.223,Double anions
mp-390,TiO2,True,False,2.0586,-3.508055451944444,[3.2],550,10.1016/j.ijleo.2018.11.009,Double anions
mp-390,TiO2,True,False,2.0586,-3.508055451944444,[3.2],,10.1016/j.ijleo.2018.11.009,Double anions
mp-390,TiO2,True,False,2.0586,-3.508055451944444,[3.2],,10.1016/j.ijleo.2019.01.070,Double anions
mp-390,TiO2,True,False,2.0586,-3.508055451944444,[3.0],,10.1016/j.ijleo.2019.05.091,Double anions
mp-390,TiO2,True,False,2.0586,-3.508055451944444,[3.95],,10.1016/j.ijleo.2019.05.091,Double anions
mp-390,TiO2,True,False,2.0586,-3.508055451944444,[3.2],,10.1016/j.inoche.2020.107906,Double anions
mp-390,TiO2,True,False,2.0586,-3.508055451944444,[3.2],,10.1016/j.jallcom.2011.07.019,Double anions
mp-390,TiO2,True,False,2.0586,-3.508055451944444,[3.0],,10.1016/j.jallcom.2016.03.240,Double anions
mp-390,TiO2,True,False,2.0586,-3.508055451944444,[3.2],,10.1016/j.jcis.2009.03.078,Double anions
mp-390,TiO2,True,False,2.0586,-3.508055451944444,[3.2],,10.1016/j.jcis.2015.11.050,Double anions
mp-390,TiO2,True,False,2.0586,-3.508055451944444,[3.2],,10.1016/j.jcis.2018.01.022,Double anions
mp-390,TiO2,True,False,2.0586,-3.508055451944444,[3.2],,10.1016/j.jcis.2019.03.044,Double anions
mp-390,TiO2,True,False,2.0586,-3.508055451944444,[3.2],,10.1016/j.jclepro.2017.10.058,Double anions
mp-390,TiO2,True,False,2.0586,-3.508055451944444,[3.2],,10.1016/j.jlumin.2017.06.021,Double anions
mp-390,TiO2,True,False,2.0586,-3.508055451944444,[3.03],,10.1016/j.jmst.2016.11.031,Double anions
mp-390,TiO2,True,False,2.0586,-3.508055451944444,[2.83],,10.1016/j.jmst.2016.11.031,Double anions
mp-390,TiO2,True,False,2.0586,-3.508055451944444,[3.2],,10.1016/j.jmst.2016.11.031,Double anions
mp-390,TiO2,True,False,2.0586,-3.508055451944444,[3.2],,10.1016/j.jphotochem.2019.01.031,Double anions
mp-390,TiO2,True,False,2.0586,-3.508055451944444,[3.0],,10.1016/j.jpowsour.2007.10.082,Double anions
mp-390,TiO2,True,False,2.0586,-3.508055451944444,[3.0],,10.1016/j.matchemphys.2012.07.049,Double anions
mp-390,TiO2,True,False,2.0586,-3.508055451944444,[3.25],,10.1016/j.matchemphys.2012.07.049,Double anions
mp-390,TiO2,True,False,2.0586,-3.508055451944444,[0.3],450,10.1016/j.matchemphys.2012.07.049,Double anions
mp-390,TiO2,True,False,2.0586,-3.508055451944444,[3.6],,10.1016/j.matdes.2015.12.022,Double anions
mp-390,TiO2,True,False,2.0586,-3.508055451944444,[3.0],,10.1016/j.md.2018.04.003,Double anions
mp-390,TiO2,True,False,2.0586,-3.508055451944444,[3.27],,10.1016/j.molcata.2011.01.017,Double anions
mp-390,TiO2,True,False,2.0586,-3.508055451944444,[2.23],,10.1016/j.molcata.2011.01.017,Double anions
mp-390,TiO2,True,False,2.0586,-3.508055451944444,[2.81],,10.1016/j.molliq.2018.09.102,Double anions
mp-390,TiO2,True,False,2.0586,-3.508055451944444,[2.2],,10.1016/j.mseb.2007.02.014,Double anions
mp-390,TiO2,True,False,2.0586,-3.508055451944444,[3.2],,10.1016/j.mseb.2007.02.014,Double anions
mp-390,TiO2,True,False,2.0586,-3.508055451944444,[3.1],,10.1016/j.mseb.2020.114581,Double anions
mp-390,TiO2,True,False,2.0586,-3.508055451944444,[3.2],,10.1016/j.mseb.2020.114581,Double anions
mp-390,TiO2,True,False,2.0586,-3.508055451944444,[3.4],,10.1016/j.mseb.2020.114581,Double anions
mp-390,TiO2,True,False,2.0586,-3.508055451944444,[3.2],,10.1016/j.mssp.2014.12.020,Double anions
mp-390,TiO2,True,False,2.0586,-3.508055451944444,[3.14],,10.1016/j.physe.2010.07.014,Double anions
mp-390,TiO2,True,False,2.0586,-3.508055451944444,[1.85],,10.1016/j.physe.2013.10.014,Double anions
mp-390,TiO2,True,False,2.0586,-3.508055451944444,[1.0],,10.1016/j.physe.2013.10.014,Double anions
mp-390,TiO2,True,False,2.0586,-3.508055451944444,[2.1],,10.1016/j.physe.2013.10.014,Double anions
mp-390,TiO2,True,False,2.0586,-3.508055451944444,[3.0],,10.1016/j.physe.2013.10.014,Double anions
mp-390,TiO2,True,False,2.0586,-3.508055451944444,[3.0],,10.1016/j.solener.2017.06.018,Double anions
mp-390,TiO2,True,False,2.0586,-3.508055451944444,[3.2],,10.1016/j.solidstatesciences.2018.03.021,Double anions
mp-390,TiO2,True,False,2.0586,-3.508055451944444,[3.0],,10.1016/j.solmat.2007.05.005,Double anions
mp-390,TiO2,True,False,2.0586,-3.508055451944444,[3.2],,10.1016/j.solmat.2014.02.032,Double anions
mp-390,TiO2,True,False,2.0586,-3.508055451944444,[2.5],,10.1016/j.solmat.2014.02.032,Double anions
mp-390,TiO2,True,False,2.0586,-3.508055451944444,[1.36],,10.1016/j.solmat.2014.02.032,Double anions
mp-390,TiO2,True,False,2.0586,-3.508055451944444,[3.0],,10.1016/j.solmat.2014.02.032,Double anions
mp-390,TiO2,True,False,2.0586,-3.508055451944444,[3.2],,10.1016/j.ssc.2006.09.055,Double anions
mp-390,TiO2,True,False,2.0586,-3.508055451944444,[2.0],,10.1016/S1002-0721(08)60270-7,Double anions
mp-390,TiO2,True,False,2.0586,-3.508055451944444,[2.06],,10.1016/S1002-0721(08)60270-7,Double anions
mp-390,TiO2,True,False,2.0586,-3.508055451944444,[3.0],,10.1016/S1002-0721(08)60270-7,Double anions
mp-390,TiO2,True,False,2.0586,-3.508055451944444,[3.2],,10.1039/b103627k,Double anions
mp-390,TiO2,True,False,2.0586,-3.508055451944444,[3.2],,10.1039/b208681f,Double anions
mp-390,TiO2,True,False,2.0586,-3.508055451944444,[3.2],,10.1039/b314692h,Double anions
mp-390,TiO2,True,False,2.0586,-3.508055451944444,[3.2],,10.1039/b406337f,Double anions
mp-390,TiO2,True,False,2.0586,-3.508055451944444,[3.2],,10.1039/b412803f,Double anions
mp-390,TiO2,True,False,2.0586,-3.508055451944444,[3.0],,10.1039/b601163m,Double anions
mp-390,TiO2,True,False,2.0586,-3.508055451944444,[3.2],,10.1039/b611740f,Double anions
mp-390,TiO2,True,False,2.0586,-3.508055451944444,[3.2],,10.1039/b700387k,Double anions
mp-390,TiO2,True,False,2.0586,-3.508055451944444,[0.48],,10.1039/b719498f,Double anions
mp-390,TiO2,True,False,2.0586,-3.508055451944444,[3.2],,10.1039/b808138g,Double anions
mp-390,TiO2,True,False,2.0586,-3.508055451944444,[2.18],,10.1039/b811238j,Double anions
mp-390,TiO2,True,False,2.0586,-3.508055451944444,[3.2],,10.1039/b822176f,Double anions
mp-390,TiO2,True,False,2.0586,-3.508055451944444,[3.2],,10.1039/b822726h,Double anions
mp-390,TiO2,True,False,2.0586,-3.508055451944444,[3.0],,10.1039/b822726h,Double anions
mp-390,TiO2,True,False,2.0586,-3.508055451944444,[3.2],,10.1039/b901936g,Double anions
mp-390,TiO2,True,False,2.0586,-3.508055451944444,[3.0],,10.1039/b903298c,Double anions
mp-390,TiO2,True,False,2.0586,-3.508055451944444,[0.2],,10.1039/b903298c,Double anions
mp-390,TiO2,True,False,2.0586,-3.508055451944444,[0.13],,10.1039/b903298c,Double anions
mp-390,TiO2,True,False,2.0586,-3.508055451944444,[0.4],,10.1039/b904539b,Double anions
mp-390,TiO2,True,False,2.0586,-3.508055451944444,[3.2],,10.1039/b907933e,Double anions
mp-390,TiO2,True,False,2.0586,-3.508055451944444,[4.7],,10.1039/b907933e,Double anions
mp-390,TiO2,True,False,2.0586,-3.508055451944444,[3.2],,10.1039/b909301j,Double anions
mp-390,TiO2,True,False,2.0586,-3.508055451944444,[2.32],,10.1039/b911709a,Double anions
mp-390,TiO2,True,False,2.0586,-3.508055451944444,[2.98],,10.1039/b913267h,Double anions
mp-390,TiO2,True,False,2.0586,-3.508055451944444,[0.01],,10.1039/b913267h,Double anions
mp-390,TiO2,True,False,2.0586,-3.508055451944444,[3.2],,10.1039/b917233e,Double anions
mp-390,TiO2,True,False,2.0586,-3.508055451944444,[3.02],,10.1039/b922057g,Double anions
mp-390,TiO2,True,False,2.0586,-3.508055451944444,[3.2],,10.1039/b922399a,Double anions
mp-390,TiO2,True,False,2.0586,-3.508055451944444,[3.2],,10.1039/b926790e,Double anions
mp-390,TiO2,True,False,2.0586,-3.508055451944444,[3.2],,10.1039/b927575d,Double anions
mp-390,TiO2,True,False,2.0586,-3.508055451944444,[3.2],,10.1039/b9nr00145j,Double anions
mp-390,TiO2,True,False,2.0586,-3.508055451944444,[5.4],,10.1039/b9nr00214f,Double anions
mp-390,TiO2,True,False,2.0586,-3.508055451944444,[3.1],,10.1039/c0cc00058b,Double anions
mp-390,TiO2,True,False,2.0586,-3.508055451944444,[3.27],,10.1039/c0cc01610a,Double anions
mp-390,TiO2,True,False,2.0586,-3.508055451944444,[3.37],,10.1039/c0cc01610a,Double anions
mp-390,TiO2,True,False,2.0586,-3.508055451944444,[3.2],,10.1039/c0cc05699e,Double anions
mp-390,TiO2,True,False,2.0586,-3.508055451944444,[3.2],,10.1039/c0ce00765j,Double anions
mp-390,TiO2,True,False,2.0586,-3.508055451944444,[3.0],,10.1039/c0ce00765j,Double anions
mp-390,TiO2,True,False,2.0586,-3.508055451944444,[3.0],,10.1039/c0cp02835e,Double anions
mp-390,TiO2,True,False,2.0586,-3.508055451944444,[3.82],,10.1039/c0cp02924f,Double anions
mp-390,TiO2,True,False,2.0586,-3.508055451944444,[2.6],,10.1039/c0cs00211a,Double anions
mp-390,TiO2,True,False,2.0586,-3.508055451944444,[3.2],,10.1039/c0ee00488j,Double anions
mp-390,TiO2,True,False,2.0586,-3.508055451944444,[3.2],,10.1039/c0ee00609b,Double anions
mp-390,TiO2,True,False,2.0586,-3.508055451944444,[3.2],,10.1039/c0ee00743a,Double anions
mp-390,TiO2,True,False,2.0586,-3.508055451944444,[3.2],,10.1039/c0jm00493f,Double anions
mp-390,TiO2,True,False,2.0586,-3.508055451944444,[3.2],,10.1039/c0jm01370f,Double anions
mp-390,TiO2,True,False,2.0586,-3.508055451944444,[3.2],,10.1039/c0jm02230f,Double anions
mp-390,TiO2,True,False,2.0586,-3.508055451944444,[3.2],,10.1039/c0jm02413a,Double anions
mp-390,TiO2,True,False,2.0586,-3.508055451944444,[3.2],,10.1039/c0jm03040f,Double anions
mp-390,TiO2,True,False,2.0586,-3.508055451944444,[3.2],,10.1039/c0jm03111a,Double anions
mp-390,TiO2,True,False,2.0586,-3.508055451944444,[4.3],,10.1039/c0jm03257c,Double anions
mp-390,TiO2,True,False,2.0586,-3.508055451944444,[3.0],,10.1039/c0jm04313c,Double anions
mp-390,TiO2,True,False,2.0586,-3.508055451944444,[3.1],500,10.1039/c0jm04512h,Double anions
mp-390,TiO2,True,False,2.0586,-3.508055451944444,[3.2],,10.1039/c0jm04533k,Double anions
mp-390,TiO2,True,False,2.0586,-3.508055451944444,[3.2],,10.1039/c0jm04587j,Double anions
mp-390,TiO2,True,False,2.0586,-3.508055451944444,[3.2],,10.1039/c0nj00268b,Double anions
mp-390,TiO2,True,False,2.0586,-3.508055451944444,[2.2],,10.1039/c0nr00089b,Double anions
mp-390,TiO2,True,False,2.0586,-3.508055451944444,[3.2],,10.1039/c1cc12669e,Double anions
mp-390,TiO2,True,False,2.0586,-3.508055451944444,[3.0],,10.1039/c1cc13096j,Double anions
mp-390,TiO2,True,False,2.0586,-3.508055451944444,[3.2],,10.1039/c1ce05409k,Double anions
mp-390,TiO2,True,False,2.0586,-3.508055451944444,[2.9],1000,10.1039/c1ce05638g,Double anions
mp-390,TiO2,True,False,2.0586,-3.508055451944444,[3.2],,10.1039/c1cp22683e,Double anions
mp-390,TiO2,True,False,2.0586,-3.508055451944444,[1.95],,10.1039/c1cp22726b,Double anions
mp-390,TiO2,True,False,2.0586,-3.508055451944444,[3.0],,10.1039/c1cp23212f,Double anions
mp-390,TiO2,True,False,2.0586,-3.508055451944444,[3.0],,10.1039/c1cy00199j,Double anions
mp-390,TiO2,True,False,2.0586,-3.508055451944444,[3.2],,10.1039/c1cy00403d,Double anions
mp-390,TiO2,True,False,2.0586,-3.508055451944444,[3.0],300,10.1039/c1dt11711d,Double anions
mp-390,TiO2,True,False,2.0586,-3.508055451944444,[3.2],,10.1039/c1gc15724h,Double anions
mp-390,TiO2,True,False,2.0586,-3.508055451944444,[2.5],,10.1039/c1ic90021h,Double anions
mp-390,TiO2,True,False,2.0586,-3.508055451944444,[3.2],,10.1039/c1jm10301f,Double anions
mp-390,TiO2,True,False,2.0586,-3.508055451944444,[3.2],,10.1039/c1jm10407a,Double anions
mp-390,TiO2,True,False,2.0586,-3.508055451944444,[2.85],,10.1039/c1jm10588d,Double anions
mp-390,TiO2,True,False,2.0586,-3.508055451944444,[3.19],,10.1039/c1jm11326g,Double anions
mp-390,TiO2,True,False,2.0586,-3.508055451944444,[3.2],,10.1039/c1jm12965a,Double anions
mp-390,TiO2,True,False,2.0586,-3.508055451944444,[3.2],,10.1039/c1jm13490f,Double anions
mp-390,TiO2,True,False,2.0586,-3.508055451944444,[2.4],,10.1039/c1jm13616j,Double anions
mp-390,TiO2,True,False,2.0586,-3.508055451944444,[3.2],,10.1039/c1jm13879k,Double anions
mp-390,TiO2,True,False,2.0586,-3.508055451944444,[3.44],,10.1039/c1nr10064e,Double anions
mp-390,TiO2,True,False,2.0586,-3.508055451944444,[3.18],,10.1039/c1nr10109a,Double anions
mp-390,TiO2,True,False,2.0586,-3.508055451944444,[3.2],,10.1039/c1nr10109a,Double anions
mp-390,TiO2,True,False,2.0586,-3.508055451944444,[2.24],,10.1039/c1pp05084b,Double anions
mp-390,TiO2,True,False,2.0586,-3.508055451944444,[1.56],,10.1039/c1sc00144b,Double anions
mp-390,TiO2,True,False,2.0586,-3.508055451944444,[3.2],,10.1039/c2cc30733b,Double anions
mp-390,TiO2,True,False,2.0586,-3.508055451944444,[3.2],,10.1039/c2cc36984b,Double anions
mp-390,TiO2,True,False,2.0586,-3.508055451944444,[3.0],,10.1039/c2ce00014h,Double anions
mp-390,TiO2,True,False,2.0586,-3.508055451944444,[3.2],,10.1039/c2ce06586j,Double anions
mp-390,TiO2,True,False,2.0586,-3.508055451944444,[3.03],,10.1039/c2cp42078c,Double anions
mp-390,TiO2,True,False,2.0586,-3.508055451944444,[2.88],,10.1039/c2cp42078c,Double anions
mp-390,TiO2,True,False,2.0586,-3.508055451944444,[3.2],,10.1039/c2cp42165h,Double anions
mp-390,TiO2,True,False,2.0586,-3.508055451944444,[3.2],,10.1039/c2cp44484d,Double anions
mp-390,TiO2,True,False,2.0586,-3.508055451944444,[3.0],,10.1039/c2cp44484d,Double anions
mp-390,TiO2,True,False,2.0586,-3.508055451944444,[3.2],,10.1039/c2cs35355e,Double anions
mp-390,TiO2,True,False,2.0586,-3.508055451944444,[3.2],,10.1039/c2cy00485b,Double anions
mp-390,TiO2,True,False,2.0586,-3.508055451944444,[3.2],,10.1039/c2cy00545j,Double anions
mp-390,TiO2,True,False,2.0586,-3.508055451944444,[3.0],,10.1039/c2cy20049j,Double anions
mp-390,TiO2,True,False,2.0586,-3.508055451944444,[3.3],,10.1039/c2cy20247f,Double anions
mp-390,TiO2,True,False,2.0586,-3.508055451944444,[3.2],,10.1039/c2cy20346d,Double anions
mp-390,TiO2,True,False,2.0586,-3.508055451944444,[3.0],,10.1039/c2cy20346d,Double anions
mp-390,TiO2,True,False,2.0586,-3.508055451944444,[3.02],,10.1039/c2dt31046e,Double anions
mp-390,TiO2,True,False,2.0586,-3.508055451944444,[3.2],,10.1039/c2dt32031b,Double anions
mp-390,TiO2,True,False,2.0586,-3.508055451944444,[3.0],,10.1039/c2dt32031b,Double anions
mp-390,TiO2,True,False,2.0586,-3.508055451944444,[3.2],,10.1039/c2ee03595b,Double anions
mp-390,TiO2,True,False,2.0586,-3.508055451944444,[3.05],,10.1039/c2ee22982j,Double anions
mp-390,TiO2,True,False,2.0586,-3.508055451944444,[4.0],,10.1039/c2jm13182j,Double anions
mp-390,TiO2,True,False,2.0586,-3.508055451944444,[3.38],400,10.1039/c2jm16161c,Double anions
mp-390,TiO2,True,False,2.0586,-3.508055451944444,[3.2],,10.1039/c2jm16161c,Double anions
mp-390,TiO2,True,False,2.0586,-3.508055451944444,[5.0],,10.1039/c2jm31119d,Double anions
mp-390,TiO2,True,False,2.0586,-3.508055451944444,[3.2],,10.1039/c2jm31576a,Double anions
mp-390,TiO2,True,False,2.0586,-3.508055451944444,[3.2],,10.1039/c2jm32391e,Double anions
mp-390,TiO2,True,False,2.0586,-3.508055451944444,[3.2],,10.1039/c2jm33404f,Double anions
mp-390,TiO2,True,False,2.0586,-3.508055451944444,[3.2],,10.1039/c2jm33458e,Double anions
mp-390,TiO2,True,False,2.0586,-3.508055451944444,[3.2],,10.1039/c2jm34298g,Double anions
mp-390,TiO2,True,False,2.0586,-3.508055451944444,[5.81],,10.1039/c2jm34580c,Double anions
mp-390,TiO2,True,False,2.0586,-3.508055451944444,[3.05],,10.1039/c2jm34690g,Double anions
mp-390,TiO2,True,False,2.0586,-3.508055451944444,[3.2],,10.1039/c2jm35042d,Double anions
mp-390,TiO2,True,False,2.0586,-3.508055451944444,[3.2],,10.1039/c2nr00009a,Double anions
mp-390,TiO2,True,False,2.0586,-3.508055451944444,[3.0],,10.1039/c2nr11278g,Double anions
mp-390,TiO2,True,False,2.0586,-3.508055451944444,[3.2],,10.1039/c2nr11501h,Double anions
mp-390,TiO2,True,False,2.0586,-3.508055451944444,[3.1],,10.1039/c2nr32213g,Double anions
mp-390,TiO2,True,False,2.0586,-3.508055451944444,[3.1],,10.1039/c2nr32301j,Double anions
mp-390,TiO2,True,False,2.0586,-3.508055451944444,[2.98],,10.1039/c2nr32301j,Double anions
mp-390,TiO2,True,False,2.0586,-3.508055451944444,[3.2],,10.1039/c2nr33669c,Double anions
mp-390,TiO2,True,False,2.0586,-3.508055451944444,[3.2],,10.1039/c2pp25026h,Double anions
mp-390,TiO2,True,False,2.0586,-3.508055451944444,[3.2],,10.1039/c2pp25231g,Double anions
mp-390,TiO2,True,False,2.0586,-3.508055451944444,[3.2],,10.1039/c2ra01102f,Double anions
mp-390,TiO2,True,False,2.0586,-3.508055451944444,[2.25],,10.1039/c2ra01102f,Double anions
mp-390,TiO2,True,False,2.0586,-3.508055451944444,[3.2],300,10.1039/c2ra01199a,Double anions
mp-390,TiO2,True,False,2.0586,-3.508055451944444,[2.47],,10.1039/c2ra01199a,Double anions
mp-390,TiO2,True,False,2.0586,-3.508055451944444,[3.2],,10.1039/c2ra20253k,Double anions
mp-390,TiO2,True,False,2.0586,-3.508055451944444,[4.7],,10.1039/c2ra20253k,Double anions
mp-390,TiO2,True,False,2.0586,-3.508055451944444,[3.2],,10.1039/c2ra21024j,Double anions
mp-390,TiO2,True,False,2.0586,-3.508055451944444,[3.4],450,10.1039/c2ra21024j,Double anions
mp-390,TiO2,True,False,2.0586,-3.508055451944444,[3.85],,10.1039/c2ra21382f,Double anions
mp-390,TiO2,True,False,2.0586,-3.508055451944444,[2.4],,10.1039/c2ra21382f,Double anions
mp-390,TiO2,True,False,2.0586,-3.508055451944444,[3.2],,10.1039/c2ra22741j,Double anions
mp-390,TiO2,True,False,2.0586,-3.508055451944444,[3.2],,10.1039/c2ta00035k,Double anions
mp-390,TiO2,True,False,2.0586,-3.508055451944444,[3.2],,10.1039/c2ta00935h,Double anions
mp-390,TiO2,True,False,2.0586,-3.508055451944444,[3.2],,10.1039/c3an00108c,Double anions
mp-390,TiO2,True,False,2.0586,-3.508055451944444,[3.02],,10.1039/c3an00108c,Double anions
mp-390,TiO2,True,False,2.0586,-3.508055451944444,[3.2],,10.1039/c3an36595f,Double anions
mp-390,TiO2,True,False,2.0586,-3.508055451944444,[3.2],,10.1039/c3ce40620b,Double anions
mp-390,TiO2,True,False,2.0586,-3.508055451944444,[3.2],,10.1039/c3ce40863a,Double anions
mp-390,TiO2,True,False,2.0586,-3.508055451944444,[3.2],,10.1039/c3ce41627e,Double anions
mp-390,TiO2,True,False,2.0586,-3.508055451944444,[3.2],,10.1039/c3ce42337a,Double anions
mp-390,TiO2,True,False,2.0586,-3.508055451944444,[3.2],,10.1039/c3cp43720e,Double anions
mp-390,TiO2,True,False,2.0586,-3.508055451944444,[3.2],,10.1039/c3cp44519d,Double anions
mp-390,TiO2,True,False,2.0586,-3.508055451944444,[3.1],,10.1039/c3cp44602f,Double anions
mp-390,TiO2,True,False,2.0586,-3.508055451944444,[3.05],,10.1039/c3cp50862e,Double anions
mp-390,TiO2,True,False,2.0586,-3.508055451944444,[3.2],,10.1039/c3cp51044a,Double anions
mp-390,TiO2,True,False,2.0586,-3.508055451944444,[3.72],,10.1039/c3cp51044a,Double anions
mp-390,TiO2,True,False,2.0586,-3.508055451944444,[1.9],,10.1039/c3cp53178c,Double anions
mp-390,TiO2,True,False,2.0586,-3.508055451944444,[3.0],,10.1039/c3cp53381f,Double anions
mp-390,TiO2,True,False,2.0586,-3.508055451944444,[0.88],,10.1039/c3cs60088b,Double anions
mp-390,TiO2,True,False,2.0586,-3.508055451944444,[3.2],,10.1039/c3cy00004d,Double anions
mp-390,TiO2,True,False,2.0586,-3.508055451944444,[1.0],,10.1039/c3cy00194f,Double anions
mp-390,TiO2,True,False,2.0586,-3.508055451944444,[3.2],,10.1039/c3dt00122a,Double anions
mp-390,TiO2,True,False,2.0586,-3.508055451944444,[3.2],,10.1039/c3dt51293b,Double anions
mp-390,TiO2,True,False,2.0586,-3.508055451944444,[3.2],,10.1039/c3dt52394b,Double anions
mp-390,TiO2,True,False,2.0586,-3.508055451944444,[2.5],,10.1039/c3dt53311e,Double anions
mp-390,TiO2,True,False,2.0586,-3.508055451944444,[3.0],,10.1039/c3dt53311e,Double anions
mp-390,TiO2,True,False,2.0586,-3.508055451944444,[3.2],,10.1039/c3ee43278e,Double anions
mp-390,TiO2,True,False,2.0586,-3.508055451944444,[3.0],,10.1039/c3ee43278e,Double anions
mp-390,TiO2,True,False,2.0586,-3.508055451944444,[3.2],,10.1039/c3ee43648a,Double anions
mp-390,TiO2,True,False,2.0586,-3.508055451944444,[3.2],,10.1039/c3nj01342a,Double anions
mp-390,TiO2,True,False,2.0586,-3.508055451944444,[2.46],,10.1039/c3nj01342a,Double anions
mp-390,TiO2,True,False,2.0586,-3.508055451944444,[3.6],,10.1039/c3nr00176h,Double anions