mpids,formula,is_stable,theoretical,band_gap,formation_energy_per_atom,Value,Temperature_raw_value,DOI,compound_type
mp-3731,LiNbO3,True,False,3.3358,-2.899517651666666,[3.85],,10.1039/c8na00171e,Oxides
mp-3731,LiNbO3,True,False,3.3358,-2.899517651666666,[0.4],,10.1007/s10854-011-0520-9,Oxides
mp-3731,LiNbO3,True,False,3.3358,-2.899517651666666,[2.2],,10.1038/srep34085,Oxides
mp-3731,LiNbO3,True,False,3.3358,-2.899517651666666,[4.0],,10.1134/S0020168519120069,Oxides
mp-3731,LiNbO3,True,False,3.3358,-2.899517651666666,[3.0],,10.1007/s10854-015-3162-5,Oxides
mp-3731,LiNbO3,True,False,3.3358,-2.899517651666666,[4.18],,10.1007/s13204-020-01443-6,Oxides
mp-3731,LiNbO3,True,False,3.3358,-2.899517651666666,[3.8],,10.1007/s13204-020-01443-6,Oxides
mp-3731,LiNbO3,True,False,3.3358,-2.899517651666666,[3.2],,10.1007/s13204-020-01443-6,Oxides
mp-3731,LiNbO3,True,False,3.3358,-2.899517651666666,[4.14],,10.1186/s11671-017-2273-8,Oxides
mp-3731,LiNbO3,True,False,3.3358,-2.899517651666666,[3.72],,10.1134/S0030400X2005015X,Oxides
mp-3731,LiNbO3,True,False,3.3358,-2.899517651666666,[3.9],,10.1016/S0925-8388(99)00422-3,Oxides
mp-3731,LiNbO3,True,False,3.3358,-2.899517651666666,[4.0],,10.1016/S0925-8388(99)00422-3,Oxides
mp-3731,LiNbO3,True,False,3.3358,-2.899517651666666,[4.3],,10.1016/S0925-8388(99)00422-3,Oxides
mp-3731,LiNbO3,True,False,3.3358,-2.899517651666666,[3.3],,10.1016/S0925-8388(99)00422-3,Oxides
mp-3731,LiNbO3,True,False,3.3358,-2.899517651666666,[3.5],,10.1021/cm0486722,Oxides
mp-1173567,NaLaMgWO6,True,True,3.5197000000000003,-2.892416510137931,[3.6685],,10.1039/c9dt00315k,Oxides
mp-27936,Na2SbF5,True,False,4.8247,-2.876547361907329,[0.6],,10.1039/c5tc01687h,Double anions
mp-5955,NaSbF6,True,False,4.8892,-2.864664735797413,[3.76],,10.1021/acs.inorgchem.7b00309,Halides
mp-19935,ErFeO3,False,False,1.5703,-2.8641381045000003,[1.69],,10.1007/s10971-020-05283-2,Halides
mp-781604,VOF2,False,True,1.729299999999999,-2.859710033333334,[0.6],,10.1039/d0cp04208k,Double anions
mp-1078634,LaFeO3,True,False,1.950899999999999,-2.852925804000007,[2.06],,10.1016/j.cej.2012.08.012,Halides
mp-1078634,LaFeO3,True,False,1.950899999999999,-2.852925804000007,[2.1],,10.1016/j.cej.2017.03.035,Halides
mp-1078634,LaFeO3,True,False,1.950899999999999,-2.852925804000007,[2.24],,10.1016/j.cej.2019.123496,Halides
mp-1078634,LaFeO3,True,False,1.950899999999999,-2.852925804000007,[2.06],,10.1016/j.jece.2018.06.051,Halides
mp-1078634,LaFeO3,True,False,1.950899999999999,-2.852925804000007,[2.24],,10.1016/j.jece.2018.06.051,Halides
mp-1078634,LaFeO3,True,False,1.950899999999999,-2.852925804000007,[2.0],,10.1016/j.optmat.2018.11.030,Halides
mp-1078634,LaFeO3,True,False,1.950899999999999,-2.852925804000007,[2.52],,10.1016/j.physb.2017.09.131,Halides
mp-1078634,LaFeO3,True,False,1.950899999999999,-2.852925804000007,[2.1],,10.1039/c6ra24627c,Halides
mp-1078634,LaFeO3,True,False,1.950899999999999,-2.852925804000007,[2.09],,10.1039/c6ra24627c,Halides
mp-1078634,LaFeO3,True,False,1.950899999999999,-2.852925804000007,[1.9],,10.1039/c6ra24627c,Halides
mp-1078634,LaFeO3,True,False,1.950899999999999,-2.852925804000007,[2.4],,10.1039/c7cp01104k,Halides
mp-1078634,LaFeO3,True,False,1.950899999999999,-2.852925804000007,[2.0],,10.1039/c7ra08715b,Halides
mp-1078634,LaFeO3,True,False,1.950899999999999,-2.852925804000007,[1.92],,10.1039/c7ra08715b,Halides
mp-1078634,LaFeO3,True,False,1.950899999999999,-2.852925804000007,[2.2],,10.1039/c8cp01500g,Halides
mp-1078634,LaFeO3,True,False,1.950899999999999,-2.852925804000007,[0.8],,10.1039/c9cp03883c,Halides
mp-1078634,LaFeO3,True,False,1.950899999999999,-2.852925804000007,[0.91],,10.1039/c9cp03883c,Halides
mp-1078634,LaFeO3,True,False,1.950899999999999,-2.852925804000007,[1.81],,10.1039/c9cp03883c,Halides
mp-1078634,LaFeO3,True,False,1.950899999999999,-2.852925804000007,[2.0],,10.1039/c9ra04265b,Halides
mp-1078634,LaFeO3,True,False,1.950899999999999,-2.852925804000007,[2.2],,10.1039/d0ta01554g,Halides
mp-1078634,LaFeO3,True,False,1.950899999999999,-2.852925804000007,[2.1],,10.1039/c4nj01029a,Halides
mp-1078634,LaFeO3,True,False,1.950899999999999,-2.852925804000007,[2.09],,10.1039/c5cc09222a,Halides
mp-1078634,LaFeO3,True,False,1.950899999999999,-2.852925804000007,[2.0],,10.1039/c5cp02834e,Halides
mp-1078634,LaFeO3,True,False,1.950899999999999,-2.852925804000007,[1.0],,10.1039/c6cp08698e,Halides
mp-1078634,LaFeO3,True,False,1.950899999999999,-2.852925804000007,[2.43],,10.1039/c6cp08698e,Halides
mp-1078634,LaFeO3,True,False,1.950899999999999,-2.852925804000007,[2.1],,10.1039/c7qi00115k,Halides
mp-1078634,LaFeO3,True,False,1.950899999999999,-2.852925804000007,[2.2],800,10.1039/c8ce01291a,Halides
mp-1078634,LaFeO3,True,False,1.950899999999999,-2.852925804000007,[2.0],,10.1039/c8ta09865d,Halides
mp-1078634,LaFeO3,True,False,1.950899999999999,-2.852925804000007,[2.82],,10.1039/c9nj03376a,Halides
mp-1078634,LaFeO3,True,False,1.950899999999999,-2.852925804000007,[2.1],,10.1039/c9nj03908b,Halides
mp-1078634,LaFeO3,True,False,1.950899999999999,-2.852925804000007,[1.94],,10.1039/c9ra09460a,Halides
mp-1078634,LaFeO3,True,False,1.950899999999999,-2.852925804000007,[2.01],,10.1039/c9ra09460a,Halides
mp-1078634,LaFeO3,True,False,1.950899999999999,-2.852925804000007,[2.43],,10.1039/d0nr01762k,Halides
mp-1078634,LaFeO3,True,False,1.950899999999999,-2.852925804000007,[1.86],,10.1039/c5nr06338h,Halides
mp-1078634,LaFeO3,True,False,1.950899999999999,-2.852925804000007,[2.36],,10.1039/c5nr06338h,Halides
mp-1078634,LaFeO3,True,False,1.950899999999999,-2.852925804000007,[2.0],,10.1039/c7nj03120c,Halides
mp-1078634,LaFeO3,True,False,1.950899999999999,-2.852925804000007,[2.07],,10.1039/c9ra05521e,Halides
mp-1078634,LaFeO3,True,False,1.950899999999999,-2.852925804000007,[2.1],,10.1039/c4nj01279h,Halides
mp-1078634,LaFeO3,True,False,1.950899999999999,-2.852925804000007,[2.1],,10.1039/c9se00526a,Halides
mp-1078634,LaFeO3,True,False,1.950899999999999,-2.852925804000007,[2.65],,10.1007/s00339-016-0240-3,Halides
mp-1078634,LaFeO3,True,False,1.950899999999999,-2.852925804000007,[2.67],,10.1007/s10853-011-5625-2,Halides
mp-1078634,LaFeO3,True,False,1.950899999999999,-2.852925804000007,[2.52],,10.1007/s10853-011-5625-2,Halides
mp-1078634,LaFeO3,True,False,1.950899999999999,-2.852925804000007,[2.42],,10.1007/s42452-018-0104-x,Halides
mp-1078634,LaFeO3,True,False,1.950899999999999,-2.852925804000007,[2.65],,10.1007/s00339-014-8559-0,Halides
mp-1078634,LaFeO3,True,False,1.950899999999999,-2.852925804000007,[2.66],,10.1007/s10854-014-2113-x,Halides
mp-1078634,LaFeO3,True,False,1.950899999999999,-2.852925804000007,[2.03],,10.1007/s11356-019-05886-5,Halides
mp-1078634,LaFeO3,True,False,1.950899999999999,-2.852925804000007,[2.1],,10.1038/s41535-018-0113-4,Halides
mp-1078634,LaFeO3,True,False,1.950899999999999,-2.852925804000007,[2.65],,10.1038/srep19723,Halides
mp-1078634,LaFeO3,True,False,1.950899999999999,-2.852925804000007,[2.15],,10.1038/srep19723,Halides
mp-1078634,LaFeO3,True,False,1.950899999999999,-2.852925804000007,[2.07],,10.1007/s10562-019-03002-3,Halides
mp-1078634,LaFeO3,True,False,1.950899999999999,-2.852925804000007,[3.0],,10.1007/s10854-020-04803-8,Halides
mp-1078634,LaFeO3,True,False,1.950899999999999,-2.852925804000007,[2.42],,10.1007/s10854-020-04803-8,Halides
mp-1078634,LaFeO3,True,False,1.950899999999999,-2.852925804000007,[2.52],,10.1007/s10904-017-0534-8,Halides
mp-1078634,LaFeO3,True,False,1.950899999999999,-2.852925804000007,[2.4],,10.1038/s41598-018-21821-z,Halides
mp-1078634,LaFeO3,True,False,1.950899999999999,-2.852925804000007,[3.28],,10.1007/s10562-013-1079-2,Halides
mp-1078634,LaFeO3,True,False,1.950899999999999,-2.852925804000007,[2.14],,10.1007/s10562-017-2206-2,Halides
mp-1078634,LaFeO3,True,False,1.950899999999999,-2.852925804000007,[2.1],,10.1007/s10971-014-3383-8,Halides
mp-1078634,LaFeO3,True,False,1.950899999999999,-2.852925804000007,[2.15],,10.1007/s10971-014-3383-8,Halides
mp-1078634,LaFeO3,True,False,1.950899999999999,-2.852925804000007,[2.18],,10.1007/s11051-020-05001-7,Halides
mp-1078634,LaFeO3,True,False,1.950899999999999,-2.852925804000007,[2.1],,10.1007/s00339-019-2806-3,Halides
mp-1078634,LaFeO3,True,False,1.950899999999999,-2.852925804000007,[2.07],,10.1007/s10853-019-03443-6,Halides
mp-1078634,LaFeO3,True,False,1.950899999999999,-2.852925804000007,[2.65],,10.1007/s10854-019-01143-0,Halides
mp-1078634,LaFeO3,True,False,1.950899999999999,-2.852925804000007,[0.8],,10.1007/s11244-018-0895-4,Halides
mp-7375,KNbO3,True,False,2.2934,-2.852127680450001,[3.14],,10.1016/j.matpr.2017.07.032,Oxides
mp-7375,KNbO3,True,False,2.2934,-2.852127680450001,[3.26],,10.1016/j.ceramint.2018.05.088,Oxides
mp-7375,KNbO3,True,False,2.2934,-2.852127680450001,[3.3],,10.1016/j.jallcom.2017.01.180,Oxides
mp-7375,KNbO3,True,False,2.2934,-2.852127680450001,[3.8],,10.1016/j.materresbull.2017.07.020,Oxides
mp-7375,KNbO3,True,False,2.2934,-2.852127680450001,[2.6],,10.1039/b718535a,Oxides
mp-7375,KNbO3,True,False,2.2934,-2.852127680450001,[3.4],,10.1039/b718535a,Oxides
mp-7375,KNbO3,True,False,2.2934,-2.852127680450001,[3.25],,10.1039/c6ra15288k,Oxides
mp-7375,KNbO3,True,False,2.2934,-2.852127680450001,[3.3],,10.1039/c6ta10497e,Oxides
mp-7375,KNbO3,True,False,2.2934,-2.852127680450001,[3.12],,10.1039/c5cs00769k,Oxides
mp-7375,KNbO3,True,False,2.2934,-2.852127680450001,[3.24],,10.1039/c5ra26079e,Oxides
mp-7375,KNbO3,True,False,2.2934,-2.852127680450001,[3.09],,10.1039/c5ra26079e,Oxides
mp-7375,KNbO3,True,False,2.2934,-2.852127680450001,[3.24],,10.1039/c9nr00246d,Oxides
mp-7375,KNbO3,True,False,2.2934,-2.852127680450001,[3.26],,10.1039/c1nr10953g,Oxides
mp-7375,KNbO3,True,False,2.2934,-2.852127680450001,[3.1],,10.1039/c9se00526a,Oxides
mp-7375,KNbO3,True,False,2.2934,-2.852127680450001,[3.14],,10.1007/s10853-010-4431-6,Oxides
mp-1244907,BeO,False,True,4.4843,-2.845416666000001,[10.0],,10.1007/s12648-017-0962-x,Oxides
mp-1244907,BeO,False,True,4.4843,-2.845416666000001,[10.6],,10.1007/s11224-017-1022-z,Oxides
mp-1244907,BeO,False,True,4.4843,-2.845416666000001,[10.17],,10.1007/s11224-017-1022-z,Oxides
mp-1244907,BeO,False,True,4.4843,-2.845416666000001,[10.6],,10.1007/s11664-013-2754-1,Oxides
mp-1244907,BeO,False,True,4.4843,-2.845416666000001,[10.0],,10.1007/s10948-017-4076-7,Oxides
mp-1244907,BeO,False,True,4.4843,-2.845416666000001,[10.39],,10.1021/jacs.5b03986,Oxides
mp-1244907,BeO,False,True,4.4843,-2.845416666000001,[10.57],,10.1021/jacs.5b03986,Oxides
mp-1244907,BeO,False,True,4.4843,-2.845416666000001,[11.2],,10.1021/jacs.5b03986,Oxides
mp-1244907,BeO,False,True,4.4843,-2.845416666000001,[11.6],,10.1021/jacs.5b03986,Oxides
mp-1244907,BeO,False,True,4.4843,-2.845416666000001,[14.5],,10.1021/jacs.5b03986,Oxides
mp-1244907,BeO,False,True,4.4843,-2.845416666000001,[5.2],,10.1021/jacs.5b03986,Oxides
mp-4514,NaNbO3,True,False,2.5048,-2.844822765275861,[3.4],,10.1016/j.cej.2020.125918,Oxides
mp-4514,NaNbO3,True,False,2.5048,-2.844822765275861,[3.45],,10.1016/j.cej.2020.125918,Oxides
mp-4514,NaNbO3,True,False,2.5048,-2.844822765275861,[1.8],,10.1016/j.matpr.2020.04.215,Oxides
mp-4514,NaNbO3,True,False,2.5048,-2.844822765275861,[3.4],,10.1016/j.matpr.2020.04.215,Oxides
mp-4514,NaNbO3,True,False,2.5048,-2.844822765275861,[3.25],,10.1039/c2ta00260d,Oxides
mp-4514,NaNbO3,True,False,2.5048,-2.844822765275861,[3.27],,10.1039/c4ta00105b,Oxides
mp-4514,NaNbO3,True,False,2.5048,-2.844822765275861,[3.4],,10.1039/c7ee03503a,Oxides
mp-4514,NaNbO3,True,False,2.5048,-2.844822765275861,[3.43],-400,10.1039/c9cp01763a,Oxides
mp-4514,NaNbO3,True,False,2.5048,-2.844822765275861,[3.2],,10.1039/d0dt01290d,Oxides
mp-4514,NaNbO3,True,False,2.5048,-2.844822765275861,[2.8],,10.1039/d0dt01290d,Oxides
mp-4514,NaNbO3,True,False,2.5048,-2.844822765275861,[3.26],,10.1039/c3dt50699a,Oxides
mp-4514,NaNbO3,True,False,2.5048,-2.844822765275861,[3.21],300,10.1039/c5ra02155c,Oxides
mp-4514,NaNbO3,True,False,2.5048,-2.844822765275861,[3.46],,10.1039/c6cy02098d,Oxides
mp-4514,NaNbO3,True,False,2.5048,-2.844822765275861,[3.0],,10.1039/c6ra15024a,Oxides
mp-4514,NaNbO3,True,False,2.5048,-2.844822765275861,[2.27],,10.1039/c6ra15024a,Oxides
mp-4514,NaNbO3,True,False,2.5048,-2.844822765275861,[0.2],,10.1039/c7ce00218a,Oxides
mp-4514,NaNbO3,True,False,2.5048,-2.844822765275861,[3.34],,10.1039/c7ce00218a,Oxides
mp-4514,NaNbO3,True,False,2.5048,-2.844822765275861,[3.36],,10.1039/c5nj00751h,Oxides
mp-4514,NaNbO3,True,False,2.5048,-2.844822765275861,[0.2],,10.1039/c6cp07423e,Oxides
mp-4514,NaNbO3,True,False,2.5048,-2.844822765275861,[3.36],,10.1039/d0dt02768e,Oxides
mp-4514,NaNbO3,True,False,2.5048,-2.844822765275861,[3.714],,10.1039/c5tc00226e,Oxides
mp-4514,NaNbO3,True,False,2.5048,-2.844822765275861,[3.4],,10.1007/s10562-010-0482-1,Oxides
mp-4514,NaNbO3,True,False,2.5048,-2.844822765275861,[3.1],,10.1007/s10311-015-0528-0,Oxides
mp-4514,NaNbO3,True,False,2.5048,-2.844822765275861,[3.29],,10.1007/s10311-015-0528-0,Oxides
mp-4514,NaNbO3,True,False,2.5048,-2.844822765275861,[2.9],,10.1007/s10832-014-9953-x,Oxides
mp-4514,NaNbO3,True,False,2.5048,-2.844822765275861,[2.88],,10.1007/s10971-020-05365-1,Oxides
mp-25423,LiVPO4F,True,False,1.6248,-2.838054900997024,[1.75],,10.1007/s10008-020-04582-6,Halides
mp-1342,BaO,True,False,2.0906,-2.8236427075,[3.32],,10.1016/j.optmat.2015.10.007,Oxides
mp-1342,BaO,True,False,2.0906,-2.8236427075,[1.7],,10.1039/c0cp02424d,Oxides
mp-1342,BaO,True,False,2.0906,-2.8236427075,[1.62],,10.1039/c5ra03573b,Oxides
mp-1342,BaO,True,False,2.0906,-2.8236427075,[4.4],,10.1039/c4ra00164h,Oxides
mp-1342,BaO,True,False,2.0906,-2.8236427075,[4.1],,10.1007/s10853-015-9393-2,Oxides
mp-1342,BaO,True,False,2.0906,-2.8236427075,[0.8],,10.1134/S1063785020020066,Oxides
mp-1342,BaO,True,False,2.0906,-2.8236427075,[1.884],,10.1007/s10948-018-4878-2,Oxides
mp-1342,BaO,True,False,2.0906,-2.8236427075,[4.65],,10.1007/s00289-018-2658-6,Oxides
mp-1342,BaO,True,False,2.0906,-2.8236427075,[2.01],,10.1007/s10948-017-4527-1,Oxides
mp-1342,BaO,True,False,2.0906,-2.8236427075,[5.13],,10.1021/jacs.5b03986,Oxides
mp-1342,BaO,True,False,2.0906,-2.8236427075,[3.8],,10.1021/jacs.5b03986,Oxides
mp-1342,BaO,True,False,2.0906,-2.8236427075,[4.8],,10.1021/jacs.5b03986,Oxides
mp-1223253,La2MnNiO6,False,True,1.580499999999999,-2.823589000793103,[0.9],,10.1016/j.jssc.2004.03.031,Double anions
mp-1223253,La2MnNiO6,False,True,1.580499999999999,-2.823589000793103,[1.4],,10.1039/c5dt03215f,Double anions
mp-1223253,La2MnNiO6,False,True,1.580499999999999,-2.823589000793103,[1.133],,10.1039/c5dt03215f,Double anions
mp-1223253,La2MnNiO6,False,True,1.580499999999999,-2.823589000793103,[1.2],,10.1039/c5dt03215f,Double anions
mp-1223253,La2MnNiO6,False,True,1.580499999999999,-2.823589000793103,[1.109],,10.1039/c5dt03215f,Double anions
mp-20783,YFeO3,False,False,1.5605,-2.818663723499999,[2.35],,10.1039/d0ra01375g,Halides
mp-20783,YFeO3,False,False,1.5605,-2.818663723499999,[2.6],,10.1007/s10854-017-8479-9,Halides
mp-20783,YFeO3,False,False,1.5605,-2.818663723499999,[2.38],,10.1007/s10876-017-1330-x,Halides
mp-20783,YFeO3,False,False,1.5605,-2.818663723499999,[3.1],,10.1007/s10876-017-1330-x,Halides
mp-20783,YFeO3,False,False,1.5605,-2.818663723499999,[2.37],,10.1007/s10948-015-3222-3,Halides
mp-20783,YFeO3,False,False,1.5605,-2.818663723499999,[2.1],,10.1007/s10854-019-01824-w,Halides
mp-5878,KZnF3,True,False,3.6954,-2.81380577495,[3.681],,10.1016/j.physb.2011.06.063,Halides
mp-5878,KZnF3,True,False,3.6954,-2.81380577495,[5.08],,10.1039/c8tc04398a,Halides
mp-1211541,Li6Sm(BO3)3,True,True,4.6432,-2.80843387986842,[5.6],,10.1016/j.optmat.2017.09.026,Chalcogenides
mp-4975,RbZnF3,True,False,4.0784,-2.796601446999999,[3.4],,10.1016/j.physb.2012.10.024,Halides
mp-4975,RbZnF3,True,False,4.0784,-2.796601446999999,[3.965],,10.1039/d0tc03225e,Halides
mp-4287,Sr2SnO4,True,False,2.6531,-2.785275042142856,[4.8],,10.1039/c8tc04725a,Double anions
mp-4287,Sr2SnO4,True,False,2.6531,-2.785275042142856,[4.6],,10.1007/s10854-020-03140-0,Double anions
mp-4287,Sr2SnO4,True,False,2.6531,-2.785275042142856,[4.7],,10.1007/s10973-018-7432-3,Double anions
mp-20282,CsPbF3,True,False,3.337399999999999,-2.784892366431033,[2.55],,10.1016/j.mseb.2020.114560,Halides
mp-18899,Nd2MnNiO6,True,False,1.457199999999999,-2.780404253293103,[1.02],,10.1016/j.jssc.2004.03.031,Double anions
mp-1191101,KMgBO3,True,False,4.6163,-2.778594942319444,[3.742],,10.1039/c5tc02337h,Oxides
mp-18449,K2ZrO3,True,False,3.6617,-2.7781002186666672,[4.18],,10.1007/s00289-020-03251-y,Double anions
mp-20407,NdFeO3,True,False,1.7349,-2.776405970499999,[0.5],,10.1039/c7ta07842k,Halides
mp-20407,NdFeO3,True,False,1.7349,-2.776405970499999,[4.9361],,10.1007/s10854-015-3669-9,Halides
mp-20407,NdFeO3,True,False,1.7349,-2.776405970499999,[3.8],,10.1007/s10854-015-3669-9,Halides
mp-1225854,CsTaWO6,True,True,3.1466,-2.764782768554279,[3.8],,10.1039/c0jm02549f,Oxides
mp-1225854,CsTaWO6,True,True,3.1466,-2.764782768554279,[2.06],,10.1039/c0jm02549f,Oxides
mp-1225854,CsTaWO6,True,True,3.1466,-2.764782768554279,[3.25],,10.1007/s11051-018-4390-4,Oxides
mp-1225854,CsTaWO6,True,True,3.1466,-2.764782768554279,[3.8],,10.1007/s42864-019-00006-9,Oxides
mp-768221,YBiO3,False,True,3.0748,-2.764777345,[0.183],,10.1038/srep01651,Oxides
mp-1020633,RbMgBO3,True,False,4.3738,-2.761020107777777,[3.827],,10.1039/c5tc02337h,Oxides
mp-1209751,Pr2MnNiO6,True,True,1.6564,-2.760933286626437,[1.0],,10.1016/j.jssc.2004.03.031,Double anions
mp-1195892,RbFe2F6,True,False,1.5418,-2.760430037222223,[6.0],,10.1039/c2sc00765g,Double anions
mp-22341,PrFeO3,True,False,1.0793,-2.757081589333333,[2.13],,10.1007/s00339-017-1186-9,Halides
mp-22341,PrFeO3,True,False,1.0793,-2.757081589333333,[2.08],,10.1007/s12039-014-0596-x,Halides
mp-22341,PrFeO3,True,False,1.0793,-2.757081589333333,[2.03],,10.1007/s12039-014-0596-x,Halides
mp-27573,NaSb3F10,True,False,4.968,-2.75338950474138,[5.5],,10.1039/c3tc31283f,Halides
mp-19034,Mg3V2O8,True,False,3.336299999999999,-2.752985765000001,[3.02],,10.1016/j.jssc.2004.12.024,Double anions
mp-683983,TaO2,False,True,0.77,-2.751955468486111,[1.0],,10.1039/c8cs00283e,Double anions
mp-17761,CaGeO3,True,False,3.481299999999999,-2.749981945333333,[1.68],,10.1021/ic062120z,Oxides
mp-17761,CaGeO3,True,False,3.481299999999999,-2.749981945333333,[2.31],,10.1021/ic062120z,Oxides
mp-17761,CaGeO3,True,False,3.481299999999999,-2.749981945333333,[1.75],,10.1021/ic062120z,Oxides
mp-17761,CaGeO3,True,False,3.481299999999999,-2.749981945333333,[2.41],,10.1021/ic062120z,Oxides
mp-1080625,Sr2LiReO6,True,False,1.8423999999999991,-2.749342723583333,[2.21],,10.1007/s00894-020-04421-5,Double anions
mp-19163,SrWO4,True,False,4.6571,-2.7457271574999997,[4.48],,10.1016/j.matpr.2020.04.142,Chalcogenides
mp-19163,SrWO4,True,False,4.6571,-2.7457271574999997,[4.94],,10.1016/j.physb.2019.08.008,Chalcogenides
mp-19163,SrWO4,True,False,4.6571,-2.7457271574999997,[4.9],,10.1016/j.ceramint.2020.06.144,Chalcogenides
mp-19163,SrWO4,True,False,4.6571,-2.7457271574999997,[4.91],,10.1016/j.ceramint.2020.06.144,Chalcogenides
mp-19163,SrWO4,True,False,4.6571,-2.7457271574999997,[3.99],900,10.1039/c4ra05903d,Chalcogenides
mp-19163,SrWO4,True,False,4.6571,-2.7457271574999997,[4.28],,10.1007/s10854-013-1631-2,Chalcogenides
mp-19163,SrWO4,True,False,4.6571,-2.7457271574999997,[4.87],,10.1007/s10854-015-3304-9,Chalcogenides
mp-19163,SrWO4,True,False,4.6571,-2.7457271574999997,[4.8],,10.1007/s10854-015-3304-9,Chalcogenides
mp-19163,SrWO4,True,False,4.6571,-2.7457271574999997,[4.68],,10.1007/s40243-017-0094-4,Chalcogenides
mp-561536,NaMgBO3,False,False,3.5852,-2.7456657742576622,[2.916],,10.1039/c5tc02337h,Oxides
mp-17464,SrGeO3,True,False,3.4179,-2.743115335333333,[2.7],,10.1039/c6cp05572a,Chalcogenides
mp-17464,SrGeO3,True,False,3.4179,-2.743115335333333,[3.67],,10.1039/c9ta03176f,Chalcogenides
mp-27767,Li6Si2O7,False,False,4.995699999999999,-2.742996080333333,[4.94],,10.1039/c3cp51659h,Double anions
mp-6270,Ba2LiReO6,True,False,1.8198,-2.741621015583333,[2.42],,10.1007/s00894-020-04421-5,Double anions