mpids,formula,is_stable,theoretical,band_gap,formation_energy_per_atom,Value,Temperature_raw_value,DOI,compound_type
mp-390,TiO2,True,False,2.0586,-3.508055451944444,[2.45],,10.1039/c8ra10155h,Double anions
mp-390,TiO2,True,False,2.0586,-3.508055451944444,[3.2],,10.1039/c8ra10538c,Double anions
mp-390,TiO2,True,False,2.0586,-3.508055451944444,[3.2],,10.1039/c8se00084k,Double anions
mp-390,TiO2,True,False,2.0586,-3.508055451944444,[3.35],,10.1039/c8ta02470g,Double anions
mp-390,TiO2,True,False,2.0586,-3.508055451944444,[3.3],,10.1039/c8ta03398f,Double anions
mp-390,TiO2,True,False,2.0586,-3.508055451944444,[3.2],,10.1039/c8ta03669a,Double anions
mp-390,TiO2,True,False,2.0586,-3.508055451944444,[3.2],,10.1039/c8ta03807d,Double anions
mp-390,TiO2,True,False,2.0586,-3.508055451944444,[3.0],,10.1039/c8ta07307d,Double anions
mp-390,TiO2,True,False,2.0586,-3.508055451944444,[3.3],,10.1039/c8ta07669c,Double anions
mp-390,TiO2,True,False,2.0586,-3.508055451944444,[3.2],,10.1039/c8ta08469f,Double anions
mp-390,TiO2,True,False,2.0586,-3.508055451944444,[3.2],,10.1039/c8ta09583c,Double anions
mp-390,TiO2,True,False,2.0586,-3.508055451944444,[3.2],,10.1039/c8ta10379h,Double anions
mp-390,TiO2,True,False,2.0586,-3.508055451944444,[2.58],,10.1039/c8ta11307f,Double anions
mp-390,TiO2,True,False,2.0586,-3.508055451944444,[2.96],,10.1039/c8ta11830b,Double anions
mp-390,TiO2,True,False,2.0586,-3.508055451944444,[3.2],,10.1039/c8tc03542c,Double anions
mp-390,TiO2,True,False,2.0586,-3.508055451944444,[1.16],,10.1039/c9ce00056a,Double anions
mp-390,TiO2,True,False,2.0586,-3.508055451944444,[3.2],,10.1039/c9cp04591k,Double anions
mp-390,TiO2,True,False,2.0586,-3.508055451944444,[3.59],,10.1039/c9cp04591k,Double anions
mp-390,TiO2,True,False,2.0586,-3.508055451944444,[3.0],,10.1039/c9cp07001j,Double anions
mp-390,TiO2,True,False,2.0586,-3.508055451944444,[3.32],,10.1039/c9cs00102f,Double anions
mp-390,TiO2,True,False,2.0586,-3.508055451944444,[3.2],,10.1039/c9cs00172g,Double anions
mp-390,TiO2,True,False,2.0586,-3.508055451944444,[3.14],,10.1039/c9cy00119k,Double anions
mp-390,TiO2,True,False,2.0586,-3.508055451944444,[3.36],,10.1039/c9cy00286c,Double anions
mp-390,TiO2,True,False,2.0586,-3.508055451944444,[1.562],,10.1039/c9dt01581g,Double anions
mp-390,TiO2,True,False,2.0586,-3.508055451944444,[3.2],,10.1039/c9dt02508a,Double anions
mp-390,TiO2,True,False,2.0586,-3.508055451944444,[2.4],,10.1039/c9dt02965f,Double anions
mp-390,TiO2,True,False,2.0586,-3.508055451944444,[3.2],,10.1039/c9dt04339j,Double anions
mp-390,TiO2,True,False,2.0586,-3.508055451944444,[3.2],,10.1039/c9dt04446a,Double anions
mp-390,TiO2,True,False,2.0586,-3.508055451944444,[2.3],,10.1039/c9dt04886c,Double anions
mp-390,TiO2,True,False,2.0586,-3.508055451944444,[3.2],,10.1039/c9en00891h,Double anions
mp-390,TiO2,True,False,2.0586,-3.508055451944444,[3.0],,10.1039/c9en00891h,Double anions
mp-390,TiO2,True,False,2.0586,-3.508055451944444,[3.12],,10.1039/c9en01180c,Double anions
mp-390,TiO2,True,False,2.0586,-3.508055451944444,[0.09],,10.1039/c9en01180c,Double anions
mp-390,TiO2,True,False,2.0586,-3.508055451944444,[2.78],,10.1039/c9ew01134j,Double anions
mp-390,TiO2,True,False,2.0586,-3.508055451944444,[3.2],,10.1039/c9fd90022e,Double anions
mp-390,TiO2,True,False,2.0586,-3.508055451944444,[3.2],,10.1039/c9gc02870f,Double anions
mp-390,TiO2,True,False,2.0586,-3.508055451944444,[1.86],,10.1039/c9na00084d,Double anions
mp-390,TiO2,True,False,2.0586,-3.508055451944444,[3.2],,10.1039/c9na00084d,Double anions
mp-390,TiO2,True,False,2.0586,-3.508055451944444,[3.21],,10.1039/c9na00760a,Double anions
mp-390,TiO2,True,False,2.0586,-3.508055451944444,[3.3],,10.1039/c9nj00275h,Double anions
mp-390,TiO2,True,False,2.0586,-3.508055451944444,[3.2],,10.1039/c9nj01398a,Double anions
mp-390,TiO2,True,False,2.0586,-3.508055451944444,[3.0],,10.1039/c9nj02226k,Double anions
mp-390,TiO2,True,False,2.0586,-3.508055451944444,[3.2],,10.1039/c9nj02226k,Double anions
mp-390,TiO2,True,False,2.0586,-3.508055451944444,[1.98],,10.1039/c9nj04097h,Double anions
mp-390,TiO2,True,False,2.0586,-3.508055451944444,[3.2],,10.1039/c9nj04097h,Double anions
mp-390,TiO2,True,False,2.0586,-3.508055451944444,[3.2],,10.1039/c9nj04107a,Double anions
mp-390,TiO2,True,False,2.0586,-3.508055451944444,[1.163],,10.1039/c9nj04107a,Double anions
mp-390,TiO2,True,False,2.0586,-3.508055451944444,[2.25],,10.1039/c9nj04320a,Double anions
mp-390,TiO2,True,False,2.0586,-3.508055451944444,[3.2],,10.1039/c9nj04860j,Double anions
mp-390,TiO2,True,False,2.0586,-3.508055451944444,[3.0],,10.1039/c9nj04860j,Double anions
mp-390,TiO2,True,False,2.0586,-3.508055451944444,[3.2],,10.1039/c9nj05246a,Double anions
mp-390,TiO2,True,False,2.0586,-3.508055451944444,[3.0],,10.1039/c9nj05422g,Double anions
mp-390,TiO2,True,False,2.0586,-3.508055451944444,[3.2],,10.1039/c9nj06413c,Double anions
mp-390,TiO2,True,False,2.0586,-3.508055451944444,[2.9],,10.1039/c9nr01260e,Double anions
mp-390,TiO2,True,False,2.0586,-3.508055451944444,[3.19],,10.1039/c9nr01260e,Double anions
mp-390,TiO2,True,False,2.0586,-3.508055451944444,[3.2],,10.1039/c9nr08753b,Double anions
mp-390,TiO2,True,False,2.0586,-3.508055451944444,[1.99],,10.1039/c9nr10349j,Double anions
mp-390,TiO2,True,False,2.0586,-3.508055451944444,[3.2],,10.1039/c9pp00119k,Double anions
mp-390,TiO2,True,False,2.0586,-3.508055451944444,[3.17],,10.1039/c9pp00119k,Double anions
mp-390,TiO2,True,False,2.0586,-3.508055451944444,[2.02],,10.1039/c9pp00119k,Double anions
mp-390,TiO2,True,False,2.0586,-3.508055451944444,[1.2],,10.1039/c9qm00415g,Double anions
mp-390,TiO2,True,False,2.0586,-3.508055451944444,[3.2],,10.1039/c9qm00556k,Double anions
mp-390,TiO2,True,False,2.0586,-3.508055451944444,[3.0],,10.1039/c9qm00592g,Double anions
mp-390,TiO2,True,False,2.0586,-3.508055451944444,[3.0],,10.1039/c9ra01826c,Double anions
mp-390,TiO2,True,False,2.0586,-3.508055451944444,[3.2],,10.1039/c9ra02544h,Double anions
mp-390,TiO2,True,False,2.0586,-3.508055451944444,[3.2],,10.1039/c9ra03064f,Double anions
mp-390,TiO2,True,False,2.0586,-3.508055451944444,[3.2],,10.1039/c9ra03279g,Double anions
mp-390,TiO2,True,False,2.0586,-3.508055451944444,[3.16],,10.1039/c9ra03435h,Double anions
mp-390,TiO2,True,False,2.0586,-3.508055451944444,[3.0],,10.1039/c9ra03885j,Double anions
mp-390,TiO2,True,False,2.0586,-3.508055451944444,[3.2],,10.1039/c9ra04002a,Double anions
mp-390,TiO2,True,False,2.0586,-3.508055451944444,[3.2],,10.1039/c9ra04265b,Double anions
mp-390,TiO2,True,False,2.0586,-3.508055451944444,[3.21],,10.1039/c9ra05958j,Double anions
mp-390,TiO2,True,False,2.0586,-3.508055451944444,[3.2],,10.1039/c9ra06181a,Double anions
mp-390,TiO2,True,False,2.0586,-3.508055451944444,[3.23],,10.1039/c9ra06704c,Double anions
mp-390,TiO2,True,False,2.0586,-3.508055451944444,[3.2],,10.1039/c9ra06704c,Double anions
mp-390,TiO2,True,False,2.0586,-3.508055451944444,[2.87],,10.1039/c9ra07355h,Double anions
mp-390,TiO2,True,False,2.0586,-3.508055451944444,[3.2],,10.1039/c9ra07424d,Double anions
mp-390,TiO2,True,False,2.0586,-3.508055451944444,[3.23],,10.1039/c9ra08152f,Double anions
mp-390,TiO2,True,False,2.0586,-3.508055451944444,[3.23],280,10.1039/c9ra08152f,Double anions
mp-390,TiO2,True,False,2.0586,-3.508055451944444,[1.29],,10.1039/c9ra08463k,Double anions
mp-390,TiO2,True,False,2.0586,-3.508055451944444,[2.32],440,10.1039/c9ra08463k,Double anions
mp-390,TiO2,True,False,2.0586,-3.508055451944444,[3.2],,10.1039/c9ra08843a,Double anions
mp-390,TiO2,True,False,2.0586,-3.508055451944444,[3.22],,10.1039/c9ra08843a,Double anions
mp-390,TiO2,True,False,2.0586,-3.508055451944444,[2.45],,10.1039/c9ra08843a,Double anions
mp-390,TiO2,True,False,2.0586,-3.508055451944444,[3.2],,10.1039/c9ra09661b,Double anions
mp-390,TiO2,True,False,2.0586,-3.508055451944444,[3.2],,10.1039/c9ra10231k,Double anions
mp-390,TiO2,True,False,2.0586,-3.508055451944444,[0.7],,10.1039/c9se00036d,Double anions
mp-390,TiO2,True,False,2.0586,-3.508055451944444,[3.2],,10.1039/c9se00292h,Double anions
mp-390,TiO2,True,False,2.0586,-3.508055451944444,[2.98],,10.1039/c9se00350a,Double anions
mp-390,TiO2,True,False,2.0586,-3.508055451944444,[3.43],,10.1039/c9se01051c,Double anions
mp-390,TiO2,True,False,2.0586,-3.508055451944444,[3.01],,10.1039/c9ta00736a,Double anions
mp-390,TiO2,True,False,2.0586,-3.508055451944444,[3.2],,10.1039/c9ta03155c,Double anions
mp-390,TiO2,True,False,2.0586,-3.508055451944444,[3.2],,10.1039/c9ta06038c,Double anions
mp-390,TiO2,True,False,2.0586,-3.508055451944444,[2.5],,10.1039/c9ta06038c,Double anions
mp-390,TiO2,True,False,2.0586,-3.508055451944444,[2.74],,10.1039/c9ta06038c,Double anions
mp-390,TiO2,True,False,2.0586,-3.508055451944444,[1.2],,10.1039/c9ta07990d,Double anions
mp-390,TiO2,True,False,2.0586,-3.508055451944444,[1.54],,10.1039/c9ta10855f,Double anions
mp-390,TiO2,True,False,2.0586,-3.508055451944444,[3.2],,10.1039/c9ta10855f,Double anions
mp-390,TiO2,True,False,2.0586,-3.508055451944444,[3.0],,10.1039/c9ta13275a,Double anions
mp-390,TiO2,True,False,2.0586,-3.508055451944444,[2.25],,10.1039/c9ta13275a,Double anions
mp-390,TiO2,True,False,2.0586,-3.508055451944444,[1.728],,10.1039/c9ta13610j,Double anions
mp-390,TiO2,True,False,2.0586,-3.508055451944444,[3.03],,10.1039/c9tc00568d,Double anions
mp-390,TiO2,True,False,2.0586,-3.508055451944444,[3.14],,10.1039/c9tc03426a,Double anions
mp-390,TiO2,True,False,2.0586,-3.508055451944444,[3.2],,10.1039/c9tc04982g,Double anions
mp-390,TiO2,True,False,2.0586,-3.508055451944444,[3.2],,10.1039/c9tc05002g,Double anions
mp-390,TiO2,True,False,2.0586,-3.508055451944444,[3.14],,10.1039/c9tc05504e,Double anions
mp-390,TiO2,True,False,2.0586,-3.508055451944444,[3.1],,10.1039/c9tc05504e,Double anions
mp-390,TiO2,True,False,2.0586,-3.508055451944444,[3.18],,10.1039/c9tc05752h,Double anions
mp-390,TiO2,True,False,2.0586,-3.508055451944444,[3.2],,10.1039/d0ce00707b,Double anions
mp-390,TiO2,True,False,2.0586,-3.508055451944444,[2.082],,10.1039/d0cp00139b,Double anions
mp-390,TiO2,True,False,2.0586,-3.508055451944444,[2.0],,10.1039/d0cp02532a,Double anions
mp-390,TiO2,True,False,2.0586,-3.508055451944444,[1.8],,10.1039/d0cp04282j,Double anions
mp-390,TiO2,True,False,2.0586,-3.508055451944444,[3.2],,10.1039/d0cs00025f,Double anions
mp-390,TiO2,True,False,2.0586,-3.508055451944444,[3.2],,10.1039/d0cs00597e,Double anions
mp-390,TiO2,True,False,2.0586,-3.508055451944444,[3.2],,10.1039/d0cy00463d,Double anions
mp-390,TiO2,True,False,2.0586,-3.508055451944444,[3.2],,10.1039/d0cy01478h,Double anions
mp-390,TiO2,True,False,2.0586,-3.508055451944444,[2.85],,10.1039/d0ew00705f,Double anions
mp-390,TiO2,True,False,2.0586,-3.508055451944444,[3.2],,10.1039/d0gc01148g,Double anions
mp-390,TiO2,True,False,2.0586,-3.508055451944444,[3.37],,10.1039/d0ma00108b,Double anions
mp-390,TiO2,True,False,2.0586,-3.508055451944444,[2.2],,10.1039/d0ma00108b,Double anions
mp-390,TiO2,True,False,2.0586,-3.508055451944444,[3.2],,10.1039/d0na00029a,Double anions
mp-390,TiO2,True,False,2.0586,-3.508055451944444,[3.18],,10.1039/d0na00103a,Double anions
mp-390,TiO2,True,False,2.0586,-3.508055451944444,[3.0],,10.1039/d0na00161a,Double anions
mp-390,TiO2,True,False,2.0586,-3.508055451944444,[3.1],,10.1039/d0nj00581a,Double anions
mp-390,TiO2,True,False,2.0586,-3.508055451944444,[2.89],,10.1039/d0nj00759e,Double anions
mp-390,TiO2,True,False,2.0586,-3.508055451944444,[3.0],,10.1039/d0nj00759e,Double anions
mp-390,TiO2,True,False,2.0586,-3.508055451944444,[3.2],,10.1039/d0nj00881h,Double anions
mp-390,TiO2,True,False,2.0586,-3.508055451944444,[3.18],,10.1039/d0nj03309j,Double anions
mp-390,TiO2,True,False,2.0586,-3.508055451944444,[3.0],,10.1039/d0nj03326j,Double anions
mp-390,TiO2,True,False,2.0586,-3.508055451944444,[1.83],,10.1039/d0nj03326j,Double anions
mp-390,TiO2,True,False,2.0586,-3.508055451944444,[3.19],,10.1039/d0nj03326j,Double anions
mp-390,TiO2,True,False,2.0586,-3.508055451944444,[3.2],,10.1039/d0nj03351k,Double anions
mp-390,TiO2,True,False,2.0586,-3.508055451944444,[3.36],,10.1039/d0nj03778h,Double anions
mp-390,TiO2,True,False,2.0586,-3.508055451944444,[3.57],,10.1039/d0nj03778h,Double anions
mp-390,TiO2,True,False,2.0586,-3.508055451944444,[2.31],,10.1039/d0nj03816d,Double anions
mp-390,TiO2,True,False,2.0586,-3.508055451944444,[3.16],,10.1039/d0nr02092c,Double anions
mp-390,TiO2,True,False,2.0586,-3.508055451944444,[1.85],,10.1039/d0nr02092c,Double anions
mp-390,TiO2,True,False,2.0586,-3.508055451944444,[3.73],,10.1039/d0ra01073a,Double anions
mp-390,TiO2,True,False,2.0586,-3.508055451944444,[3.1],,10.1039/d0ra01322f,Double anions
mp-390,TiO2,True,False,2.0586,-3.508055451944444,[3.2],,10.1039/d0ra01327g,Double anions
mp-390,TiO2,True,False,2.0586,-3.508055451944444,[2.17],,10.1039/d0ra01327g,Double anions
mp-390,TiO2,True,False,2.0586,-3.508055451944444,[3.34],,10.1039/d0ra01327g,Double anions
mp-390,TiO2,True,False,2.0586,-3.508055451944444,[3.2],,10.1039/d0ra01549k,Double anions
mp-390,TiO2,True,False,2.0586,-3.508055451944444,[3.15],,10.1039/d0ra01549k,Double anions
mp-390,TiO2,True,False,2.0586,-3.508055451944444,[3.12],800,10.1039/d0ra01549k,Double anions
mp-390,TiO2,True,False,2.0586,-3.508055451944444,[3.2],,10.1039/d0ra01731k,Double anions
mp-390,TiO2,True,False,2.0586,-3.508055451944444,[3.2],,10.1039/d0ra01988g,Double anions
mp-390,TiO2,True,False,2.0586,-3.508055451944444,[2.9],,10.1039/d0ra02898c,Double anions
mp-390,TiO2,True,False,2.0586,-3.508055451944444,[3.0],,10.1039/d0ra03157g,Double anions
mp-390,TiO2,True,False,2.0586,-3.508055451944444,[3.2],,10.1039/d0ra03157g,Double anions
mp-390,TiO2,True,False,2.0586,-3.508055451944444,[3.1],,10.1039/d0ra04851h,Double anions
mp-390,TiO2,True,False,2.0586,-3.508055451944444,[3.2],,10.1039/d0ra05009a,Double anions
mp-390,TiO2,True,False,2.0586,-3.508055451944444,[3.24],,10.1039/d0ra05009a,Double anions
mp-390,TiO2,True,False,2.0586,-3.508055451944444,[3.22],,10.1039/d0ra05824f,Double anions
mp-390,TiO2,True,False,2.0586,-3.508055451944444,[3.0],,10.1039/d0ra06309f,Double anions
mp-390,TiO2,True,False,2.0586,-3.508055451944444,[3.1],,10.1039/d0ra06309f,Double anions
mp-390,TiO2,True,False,2.0586,-3.508055451944444,[3.0],,10.1039/d0ra06455f,Double anions
mp-390,TiO2,True,False,2.0586,-3.508055451944444,[3.2],,10.1039/d0ra07567a,Double anions
mp-390,TiO2,True,False,2.0586,-3.508055451944444,[3.2],,10.1039/d0sc02876b,Double anions
mp-390,TiO2,True,False,2.0586,-3.508055451944444,[3.0],,10.1039/d0se01305f,Double anions
mp-390,TiO2,True,False,2.0586,-3.508055451944444,[2.5],,10.1039/d0ta00754d,Double anions
mp-390,TiO2,True,False,2.0586,-3.508055451944444,[3.2],,10.1039/d0ta03749d,Double anions
mp-390,TiO2,True,False,2.0586,-3.508055451944444,[3.0],,10.1039/d0ta05621a,Double anions
mp-390,TiO2,True,False,2.0586,-3.508055451944444,[0.002],,10.1039/d0ta06629j,Double anions
mp-390,TiO2,True,False,2.0586,-3.508055451944444,[3.2],,10.1039/d0ta06993k,Double anions
mp-390,TiO2,True,False,2.0586,-3.508055451944444,[3.2],,10.1039/d0tb01191f,Double anions
mp-390,TiO2,True,False,2.0586,-3.508055451944444,[2.06],,10.1039/d0tc01968b,Double anions
mp-390,TiO2,True,False,2.0586,-3.508055451944444,[3.0],,10.1039/d0tc03684f,Double anions
mp-390,TiO2,True,False,2.0586,-3.508055451944444,[3.5],,10.1039/b109593p,Double anions
mp-390,TiO2,True,False,2.0586,-3.508055451944444,[3.2],,10.1039/b211963n,Double anions
mp-390,TiO2,True,False,2.0586,-3.508055451944444,[2.88],,10.1039/b306845e,Double anions
mp-390,TiO2,True,False,2.0586,-3.508055451944444,[0.45],,10.1039/b306845e,Double anions
mp-390,TiO2,True,False,2.0586,-3.508055451944444,[3.2],,10.1039/b403530e,Double anions
mp-390,TiO2,True,False,2.0586,-3.508055451944444,[3.0],,10.1039/b502147b,Double anions
mp-390,TiO2,True,False,2.0586,-3.508055451944444,[3.2],,10.1039/b615903f,Double anions
mp-390,TiO2,True,False,2.0586,-3.508055451944444,[3.2],,10.1039/b617944d,Double anions
mp-390,TiO2,True,False,2.0586,-3.508055451944444,[4.03],,10.1039/b703187d,Double anions
mp-390,TiO2,True,False,2.0586,-3.508055451944444,[3.2],,10.1039/b705887j,Double anions
mp-390,TiO2,True,False,2.0586,-3.508055451944444,[3.0],,10.1039/b719545c,Double anions
mp-390,TiO2,True,False,2.0586,-3.508055451944444,[3.2],,10.1039/b719545c,Double anions
mp-390,TiO2,True,False,2.0586,-3.508055451944444,[3.2],,10.1039/b807236a,Double anions
mp-390,TiO2,True,False,2.0586,-3.508055451944444,[3.09],,10.1039/b820816f,Double anions
mp-390,TiO2,True,False,2.0586,-3.508055451944444,[3.0],,10.1039/b823142g,Double anions
mp-390,TiO2,True,False,2.0586,-3.508055451944444,[3.14],,10.1039/b909433d,Double anions
mp-390,TiO2,True,False,2.0586,-3.508055451944444,[3.0],,10.1039/b910180b,Double anions
mp-390,TiO2,True,False,2.0586,-3.508055451944444,[3.1],,10.1039/b912549c,Double anions
mp-390,TiO2,True,False,2.0586,-3.508055451944444,[3.0],,10.1039/b915349g,Double anions
mp-390,TiO2,True,False,2.0586,-3.508055451944444,[3.2],,10.1039/b921228k,Double anions
mp-390,TiO2,True,False,2.0586,-3.508055451944444,[3.2],,10.1039/b921692h,Double anions
mp-390,TiO2,True,False,2.0586,-3.508055451944444,[3.0],,10.1039/b927224k,Double anions
mp-390,TiO2,True,False,2.0586,-3.508055451944444,[3.2],,10.1039/b9nj00737g,Double anions
mp-390,TiO2,True,False,2.0586,-3.508055451944444,[3.2],,10.1039/c000744g,Double anions
mp-390,TiO2,True,False,2.0586,-3.508055451944444,[3.23],,10.1039/c0ce00464b,Double anions
mp-390,TiO2,True,False,2.0586,-3.508055451944444,[3.18],,10.1039/c0ce00464b,Double anions
mp-390,TiO2,True,False,2.0586,-3.508055451944444,[3.2],,10.1039/c0ce00508h,Double anions
mp-390,TiO2,True,False,2.0586,-3.508055451944444,[3.2],,10.1039/c0ce00596g,Double anions
mp-390,TiO2,True,False,2.0586,-3.508055451944444,[3.2],,10.1039/c0cp01459a,Double anions
mp-390,TiO2,True,False,2.0586,-3.508055451944444,[2.4],,10.1039/c0cp01459a,Double anions
mp-390,TiO2,True,False,2.0586,-3.508055451944444,[3.2],,10.1039/c0dt00575d,Double anions
mp-390,TiO2,True,False,2.0586,-3.508055451944444,[3.2],,10.1039/c0dt01794a,Double anions
mp-390,TiO2,True,False,2.0586,-3.508055451944444,[2.81],,10.1039/c0ee00363h,Double anions
mp-390,TiO2,True,False,2.0586,-3.508055451944444,[3.0],,10.1039/c0ee00729c,Double anions
mp-390,TiO2,True,False,2.0586,-3.508055451944444,[2.8],450,10.1039/c0jm00543f,Double anions
mp-390,TiO2,True,False,2.0586,-3.508055451944444,[2.8],,10.1039/c0jm00543f,Double anions
mp-390,TiO2,True,False,2.0586,-3.508055451944444,[3.0],,10.1039/c0jm01720e,Double anions
mp-390,TiO2,True,False,2.0586,-3.508055451944444,[3.2],,10.1039/c0jm02217a,Double anions
mp-390,TiO2,True,False,2.0586,-3.508055451944444,[2.14],,10.1039/c0jm02217a,Double anions
mp-390,TiO2,True,False,2.0586,-3.508055451944444,[3.2],,10.1039/c0jm02271c,Double anions
mp-390,TiO2,True,False,2.0586,-3.508055451944444,[3.2],,10.1039/c0jm02549f,Double anions
mp-390,TiO2,True,False,2.0586,-3.508055451944444,[3.0],,10.1039/c0jm03106b,Double anions
mp-390,TiO2,True,False,2.0586,-3.508055451944444,[3.2],,10.1039/c0jm03106b,Double anions
mp-390,TiO2,True,False,2.0586,-3.508055451944444,[3.24],,10.1039/c0jm03825c,Double anions
mp-390,TiO2,True,False,2.0586,-3.508055451944444,[3.2],,10.1039/c0jm04085a,Double anions
mp-390,TiO2,True,False,2.0586,-3.508055451944444,[4.0],,10.1039/c0jm04276e,Double anions
mp-390,TiO2,True,False,2.0586,-3.508055451944444,[3.2],,10.1039/c0jm04374e,Double anions
mp-390,TiO2,True,False,2.0586,-3.508055451944444,[3.0],,10.1039/c0sc00321b,Double anions
mp-390,TiO2,True,False,2.0586,-3.508055451944444,[3.2],,10.1039/c1cc12539g,Double anions
mp-390,TiO2,True,False,2.0586,-3.508055451944444,[3.2],,10.1039/c1ce05974b,Double anions
mp-390,TiO2,True,False,2.0586,-3.508055451944444,[3.11],,10.1039/c1ce05974b,Double anions
mp-390,TiO2,True,False,2.0586,-3.508055451944444,[3.2],,10.1039/c1cp20079h,Double anions
mp-390,TiO2,True,False,2.0586,-3.508055451944444,[2.1],,10.1039/c1cp20540d,Double anions
mp-390,TiO2,True,False,2.0586,-3.508055451944444,[3.34],,10.1039/c1cp20908f,Double anions