mpids,formula,is_stable,theoretical,band_gap,formation_energy_per_atom,Value,Temperature_raw_value,DOI,compound_type
mp-9195,BaCuSeF,True,False,1.4265,-2.238796894960938,[2.9],,10.1016/j.tsf.2003.08.034,Halides
mp-757343,Ca4Bi6O13,False,True,1.7193,-2.238789148478262,[2.76],,10.1007/s10853-005-1223-5,Oxides
mp-559798,NiF2,True,False,4.9116,-2.232239561666667,[9.0],,10.1039/c2cp22419d,Double anions
mp-23074,BiOF,True,False,3.1303,-2.226778585833356,[3.99],,10.1016/j.jphotochem.2019.01.031,Halides
mp-23074,BiOF,True,False,3.1303,-2.226778585833356,[2.95],,10.1039/c2ra20881d,Halides
mp-23074,BiOF,True,False,3.1303,-2.226778585833356,[3.93],,10.1039/c5ra14769g,Halides
mp-23074,BiOF,True,False,3.1303,-2.226778585833356,[4.15],,10.1039/c6ra11877a,Halides
mp-23074,BiOF,True,False,3.1303,-2.226778585833356,[3.64],,10.1039/c8cc05149f,Halides
mp-23074,BiOF,True,False,3.1303,-2.226778585833356,[3.12],,10.1134/S0036024417120275,Halides
mp-23074,BiOF,True,False,3.1303,-2.226778585833356,[3.95],,10.1007/s10854-019-00899-9,Halides
mp-1048859,ZnCr2O4,False,True,1.315,-2.224614076428571,[2.47],,10.1016/j.matpr.2020.04.108,Double anions
mp-1048859,ZnCr2O4,False,True,1.315,-2.224614076428571,[2.4],200,10.1016/j.matpr.2020.04.108,Double anions
mp-1048859,ZnCr2O4,False,True,1.315,-2.224614076428571,[2.47],200,10.1016/j.matpr.2020.04.108,Double anions
mp-1048859,ZnCr2O4,False,True,1.315,-2.224614076428571,[2.82],,10.1039/c3cp50312g,Double anions
mp-1048859,ZnCr2O4,False,True,1.315,-2.224614076428571,[3.35],,10.1039/c8ta03669a,Double anions
mp-1048859,ZnCr2O4,False,True,1.315,-2.224614076428571,[3.35],,10.1038/srep20071,Double anions
mp-1048859,ZnCr2O4,False,True,1.315,-2.224614076428571,[3.5],,10.1038/srep20071,Double anions
mp-1048859,ZnCr2O4,False,True,1.315,-2.224614076428571,[3.7],,10.1007/s10854-014-2470-5,Double anions
mp-19407,MnWO4,True,False,2.356299999999999,-2.216569472988496,[3.0],,10.1016/j.physb.2012.05.044,Oxides
mp-19407,MnWO4,True,False,2.356299999999999,-2.216569472988496,[2.8],,10.1016/j.physb.2012.05.044,Oxides
mp-19407,MnWO4,True,False,2.356299999999999,-2.216569472988496,[1.19],,10.1016/j.physb.2012.05.044,Oxides
mp-19407,MnWO4,True,False,2.356299999999999,-2.216569472988496,[2.6],,10.1007/s10854-017-7402-8,Oxides
mp-19407,MnWO4,True,False,2.356299999999999,-2.216569472988496,[2.75],,10.1007/s10854-020-04045-8,Oxides
mp-19407,MnWO4,True,False,2.356299999999999,-2.216569472988496,[2.61],,10.1007/s10854-020-04045-8,Oxides
mp-19407,MnWO4,True,False,2.356299999999999,-2.216569472988496,[2.61],,10.1007/s13204-018-0780-2,Oxides
mp-19407,MnWO4,True,False,2.356299999999999,-2.216569472988496,[2.8],,10.1007/s10854-016-4790-0,Oxides
mp-19407,MnWO4,True,False,2.356299999999999,-2.216569472988496,[2.9],,10.1007/s10854-016-4790-0,Oxides
mp-19407,MnWO4,True,False,2.356299999999999,-2.216569472988496,[2.63],,10.1007/s10876-012-0450-6,Oxides
mp-32533,Na2W4O13,True,True,1.808499999999999,-2.215550446724137,[3.1],,10.1039/b821209k,Double anions
mp-32533,Na2W4O13,True,True,1.808499999999999,-2.215550446724137,[2.8],,10.1039/b821209k,Double anions
mp-550514,LaTaN2O,True,False,0.671299999999999,-2.215536883466666,[2.0],,10.1021/ic4013763,Double anions
mp-550514,LaTaN2O,True,False,0.671299999999999,-2.215536883466666,[1.8],,10.1021/jacs.7b06373,Double anions
mp-866214,LuBr3,True,True,3.0669,-2.214739524166667,[5.6],,10.1016/j.optmat.2011.08.020,Halides
mp-634859,CaO2,True,False,2.7345,-2.206560153333333,[3.38],,10.1039/c3ra43617a,Double anions
mp-634859,CaO2,True,False,2.7345,-2.206560153333333,[2.78],,10.1038/srep12330,Double anions
mp-4770,Na2SO4,True,False,4.9903,-2.205027457894088,[2.2],,10.1039/d0ta01554g,Double anions
mp-4770,Na2SO4,True,False,4.9903,-2.205027457894088,[1.22],,10.1039/c8dt02166j,Double anions
mp-4770,Na2SO4,True,False,4.9903,-2.205027457894088,[1.6],,10.1007/s10800-016-0948-y,Double anions
mp-1191636,CsCdBO3,True,False,1.646199999999999,-2.20257312480364,[2.58],,10.1002/ejic.201300888,Oxides
mp-561533,SbOF,True,False,3.322699999999999,-2.201293383750001,[3.0],,10.1038/s41524-018-0071-1,Halides
mp-1196300,Nd2ZrS5,True,False,1.0438,-2.200962773437502,[1.83],,10.1039/c3dt50291k,Double anions
mp-2383161,WO3,True,True,1.3585,-2.190860606562499,[2.8],,10.1016/j.cej.2010.12.007,Oxides
mp-2383161,WO3,True,True,1.3585,-2.190860606562499,[2.8],,10.1016/j.cej.2011.09.030,Oxides
mp-2383161,WO3,True,True,1.3585,-2.190860606562499,[2.73],,10.1016/j.cej.2011.12.039,Oxides
mp-2383161,WO3,True,True,1.3585,-2.190860606562499,[2.63],,10.1016/j.cej.2013.12.058,Oxides
mp-2383161,WO3,True,True,1.3585,-2.190860606562499,[2.68],,10.1016/j.cej.2016.04.128,Oxides
mp-2383161,WO3,True,True,1.3585,-2.190860606562499,[3.2],,10.1016/j.cej.2016.09.083,Oxides
mp-2383161,WO3,True,True,1.3585,-2.190860606562499,[2.8],,10.1016/j.cej.2017.02.084,Oxides
mp-2383161,WO3,True,True,1.3585,-2.190860606562499,[2.4],,10.1016/j.cej.2017.05.179,Oxides
mp-2383161,WO3,True,True,1.3585,-2.190860606562499,[2.73],,10.1016/j.cej.2017.07.170,Oxides
mp-2383161,WO3,True,True,1.3585,-2.190860606562499,[2.65],,10.1016/j.cej.2017.10.165,Oxides
mp-2383161,WO3,True,True,1.3585,-2.190860606562499,[2.6],,10.1016/j.cej.2018.05.100,Oxides
mp-2383161,WO3,True,True,1.3585,-2.190860606562499,[2.6],,10.1016/j.cej.2018.06.015,Oxides
mp-2383161,WO3,True,True,1.3585,-2.190860606562499,[0.08],,10.1016/j.cej.2018.08.210,Oxides
mp-2383161,WO3,True,True,1.3585,-2.190860606562499,[2.32],,10.1016/j.cej.2018.09.001,Oxides
mp-2383161,WO3,True,True,1.3585,-2.190860606562499,[2.82],,10.1016/j.cej.2018.09.001,Oxides
mp-2383161,WO3,True,True,1.3585,-2.190860606562499,[2.3],,10.1016/j.cej.2019.122497,Oxides
mp-2383161,WO3,True,True,1.3585,-2.190860606562499,[2.73],,10.1016/j.cej.2019.122691,Oxides
mp-2383161,WO3,True,True,1.3585,-2.190860606562499,[2.58],,10.1016/j.cej.2019.122740,Oxides
mp-2383161,WO3,True,True,1.3585,-2.190860606562499,[2.7],,10.1016/j.cej.2019.123427,Oxides
mp-2383161,WO3,True,True,1.3585,-2.190860606562499,[2.7],,10.1016/j.cej.2020.124475,Oxides
mp-2383161,WO3,True,True,1.3585,-2.190860606562499,[1.9],,10.1016/j.cej.2020.125415,Oxides
mp-2383161,WO3,True,True,1.3585,-2.190860606562499,[2.47],,10.1016/j.cej.2020.125602,Oxides
mp-2383161,WO3,True,True,1.3585,-2.190860606562499,[2.8],,10.1016/j.cej.2020.125662,Oxides
mp-2383161,WO3,True,True,1.3585,-2.190860606562499,[2.0],,10.1016/j.cej.2020.125662,Oxides
mp-2383161,WO3,True,True,1.3585,-2.190860606562499,[2.75],,10.1016/j.cej.2020.125733,Oxides
mp-2383161,WO3,True,True,1.3585,-2.190860606562499,[2.78],,10.1016/j.cej.2020.125836,Oxides
mp-2383161,WO3,True,True,1.3585,-2.190860606562499,[2.8],,10.1016/j.jece.2017.11.063,Oxides
mp-2383161,WO3,True,True,1.3585,-2.190860606562499,[2.8],,10.1016/j.jece.2018.02.034,Oxides
mp-2383161,WO3,True,True,1.3585,-2.190860606562499,[3.1],,10.1016/j.jece.2018.02.034,Oxides
mp-2383161,WO3,True,True,1.3585,-2.190860606562499,[2.7],,10.1016/j.jece.2018.05.004,Oxides
mp-2383161,WO3,True,True,1.3585,-2.190860606562499,[2.83],,10.1016/j.jece.2018.10.037,Oxides
mp-2383161,WO3,True,True,1.3585,-2.190860606562499,[2.5],,10.1016/j.jece.2019.103401,Oxides
mp-2383161,WO3,True,True,1.3585,-2.190860606562499,[2.61],,10.1016/j.jece.2019.103560,Oxides
mp-2383161,WO3,True,True,1.3585,-2.190860606562499,[6.3],,10.1016/j.jece.2019.103560,Oxides
mp-2383161,WO3,True,True,1.3585,-2.190860606562499,[2.2],,10.1016/j.jece.2020.104044,Oxides
mp-2383161,WO3,True,True,1.3585,-2.190860606562499,[2.8],,10.1016/j.jece.2020.104145,Oxides
mp-2383161,WO3,True,True,1.3585,-2.190860606562499,[2.2],,10.1016/j.matpr.2016.01.005,Oxides
mp-2383161,WO3,True,True,1.3585,-2.190860606562499,[2.8],300,10.1016/j.matpr.2016.01.062,Oxides
mp-2383161,WO3,True,True,1.3585,-2.190860606562499,[2.6],,10.1016/j.matpr.2018.05.081,Oxides
mp-2383161,WO3,True,True,1.3585,-2.190860606562499,[2.5],,10.1016/j.matpr.2019.05.254,Oxides
mp-2383161,WO3,True,True,1.3585,-2.190860606562499,[3.2],,10.1016/j.matpr.2019.10.093,Oxides
mp-2383161,WO3,True,True,1.3585,-2.190860606562499,[3.0],300,10.1016/j.optmat.2005.11.017,Oxides
mp-2383161,WO3,True,True,1.3585,-2.190860606562499,[2.7],50 to 500,10.1016/j.optmat.2005.11.017,Oxides
mp-2383161,WO3,True,True,1.3585,-2.190860606562499,[2.8],,10.1016/j.optmat.2017.02.033,Oxides
mp-2383161,WO3,True,True,1.3585,-2.190860606562499,[3.0],,10.1016/j.optmat.2019.109220,Oxides
mp-2383161,WO3,True,True,1.3585,-2.190860606562499,[2.7],,10.1016/j.physb.2012.01.113,Oxides
mp-2383161,WO3,True,True,1.3585,-2.190860606562499,[2.71],,10.1016/j.physb.2014.09.045,Oxides
mp-2383161,WO3,True,True,1.3585,-2.190860606562499,[3.4],,10.1016/j.tsf.2005.02.019,Oxides
mp-2383161,WO3,True,True,1.3585,-2.190860606562499,[3.0],,10.1016/j.tsf.2005.08.361,Oxides
mp-2383161,WO3,True,True,1.3585,-2.190860606562499,[2.34],,10.1016/j.tsf.2009.01.090,Oxides
mp-2383161,WO3,True,True,1.3585,-2.190860606562499,[3.3],,10.1016/j.tsf.2009.08.001,Oxides
mp-2383161,WO3,True,True,1.3585,-2.190860606562499,[2.8],,10.1016/j.tsf.2009.08.001,Oxides
mp-2383161,WO3,True,True,1.3585,-2.190860606562499,[3.3],,10.1016/j.tsf.2009.10.153,Oxides
mp-2383161,WO3,True,True,1.3585,-2.190860606562499,[3.22],,10.1016/j.tsf.2010.01.037,Oxides
mp-2383161,WO3,True,True,1.3585,-2.190860606562499,[2.61],,10.1016/j.tsf.2010.01.037,Oxides
mp-2383161,WO3,True,True,1.3585,-2.190860606562499,[3.12],,10.1016/j.tsf.2010.01.037,Oxides
mp-2383161,WO3,True,True,1.3585,-2.190860606562499,[2.4],300,10.1016/j.tsf.2011.12.070,Oxides
mp-2383161,WO3,True,True,1.3585,-2.190860606562499,[2.7],,10.1016/j.tsf.2012.08.032,Oxides
mp-2383161,WO3,True,True,1.3585,-2.190860606562499,[0.23],,10.1016/j.tsf.2013.01.080,Oxides
mp-2383161,WO3,True,True,1.3585,-2.190860606562499,[2.6],,10.1016/j.tsf.2013.01.080,Oxides
mp-2383161,WO3,True,True,1.3585,-2.190860606562499,[3.38],,10.1016/j.tsf.2015.02.031,Oxides
mp-2383161,WO3,True,True,1.3585,-2.190860606562499,[2.7],,10.1016/j.tsf.2015.04.033,Oxides
mp-2383161,WO3,True,True,1.3585,-2.190860606562499,[3.0],,10.1016/j.tsf.2015.06.006,Oxides
mp-2383161,WO3,True,True,1.3585,-2.190860606562499,[3.0],,10.1016/j.tsf.2015.08.066,Oxides
mp-2383161,WO3,True,True,1.3585,-2.190860606562499,[2.5],,10.1016/j.tsf.2017.01.044,Oxides
mp-2383161,WO3,True,True,1.3585,-2.190860606562499,[2.52],,10.1016/j.tsf.2017.05.009,Oxides
mp-2383161,WO3,True,True,1.3585,-2.190860606562499,[3.1],,10.1016/j.tsf.2018.03.011,Oxides
mp-2383161,WO3,True,True,1.3585,-2.190860606562499,[3.31],250,10.1016/j.tsf.2018.03.011,Oxides
mp-2383161,WO3,True,True,1.3585,-2.190860606562499,[3.31],,10.1016/j.tsf.2018.03.011,Oxides
mp-2383161,WO3,True,True,1.3585,-2.190860606562499,[3.3],500,10.1016/j.tsf.2020.137856,Oxides
mp-2383161,WO3,True,True,1.3585,-2.190860606562499,[3.5],,10.1016/S0040-6090(00)00745-8,Oxides
mp-2383161,WO3,True,True,1.3585,-2.190860606562499,[2.6],,10.1016/S0040-6090(01)00986-5,Oxides
mp-2383161,WO3,True,True,1.3585,-2.190860606562499,[2.7],,10.1016/j.jallcom.2018.05.147,Oxides
mp-2383161,WO3,True,True,1.3585,-2.190860606562499,[2.6],,10.1016/j.materresbull.2016.11.032,Oxides
mp-2383161,WO3,True,True,1.3585,-2.190860606562499,[3.3],,10.1016/j.materresbull.2016.11.032,Oxides
mp-2383161,WO3,True,True,1.3585,-2.190860606562499,[2.47],,10.1016/j.materresbull.2016.11.032,Oxides
mp-2383161,WO3,True,True,1.3585,-2.190860606562499,[2.8],,10.1039/b718258a,Oxides
mp-2383161,WO3,True,True,1.3585,-2.190860606562499,[2.6],,10.1039/b805251d,Oxides
mp-2383161,WO3,True,True,1.3585,-2.190860606562499,[2.6],,10.1039/b926931b,Oxides
mp-2383161,WO3,True,True,1.3585,-2.190860606562499,[2.7],,10.1039/c0ee00743a,Oxides
mp-2383161,WO3,True,True,1.3585,-2.190860606562499,[2.77],,10.1039/c0ee00743a,Oxides
mp-2383161,WO3,True,True,1.3585,-2.190860606562499,[2.75],,10.1039/c0jm02413a,Oxides
mp-2383161,WO3,True,True,1.3585,-2.190860606562499,[3.0],,10.1039/c1cc16112a,Oxides
mp-2383161,WO3,True,True,1.3585,-2.190860606562499,[2.6],,10.1039/c1cp23212f,Oxides
mp-2383161,WO3,True,True,1.3585,-2.190860606562499,[2.25],,10.1039/c1jm11259g,Oxides
mp-2383161,WO3,True,True,1.3585,-2.190860606562499,[2.7],,10.1039/c1jm11259g,Oxides
mp-2383161,WO3,True,True,1.3585,-2.190860606562499,[0.45],,10.1039/c1jm11259g,Oxides
mp-2383161,WO3,True,True,1.3585,-2.190860606562499,[2.5],,10.1039/c2dt31468a,Oxides
mp-2383161,WO3,True,True,1.3585,-2.190860606562499,[2.6],,10.1039/c2dt31468a,Oxides
mp-2383161,WO3,True,True,1.3585,-2.190860606562499,[2.0],,10.1039/c2sc20874a,Oxides
mp-2383161,WO3,True,True,1.3585,-2.190860606562499,[2.6],,10.1039/c2sc20874a,Oxides
mp-2383161,WO3,True,True,1.3585,-2.190860606562499,[2.55],,10.1039/c2ta00441k,Oxides
mp-2383161,WO3,True,True,1.3585,-2.190860606562499,[2.7],,10.1039/c3ce40620b,Oxides
mp-2383161,WO3,True,True,1.3585,-2.190860606562499,[2.5],,10.1039/c3cy00056g,Oxides
mp-2383161,WO3,True,True,1.3585,-2.190860606562499,[2.6],,10.1039/c3ee40712h,Oxides
mp-2383161,WO3,True,True,1.3585,-2.190860606562499,[2.61],,10.1039/c3ta01175e,Oxides
mp-2383161,WO3,True,True,1.3585,-2.190860606562499,[0.46],,10.1039/c3tc30845f,Oxides
mp-2383161,WO3,True,True,1.3585,-2.190860606562499,[2.7],,10.1039/c4nr00024b,Oxides
mp-2383161,WO3,True,True,1.3585,-2.190860606562499,[2.75],,10.1039/c4ra00023d,Oxides
mp-2383161,WO3,True,True,1.3585,-2.190860606562499,[2.8],,10.1039/c4ra01769b,Oxides
mp-2383161,WO3,True,True,1.3585,-2.190860606562499,[2.7],,10.1039/c4ra10500a,Oxides
mp-2383161,WO3,True,True,1.3585,-2.190860606562499,[2.6],,10.1039/c4ta00702f,Oxides
mp-2383161,WO3,True,True,1.3585,-2.190860606562499,[2.7],,10.1039/c5cp05599g,Oxides
mp-2383161,WO3,True,True,1.3585,-2.190860606562499,[2.8],,10.1039/c5ra11682a,Oxides
mp-2383161,WO3,True,True,1.3585,-2.190860606562499,[2.7],,10.1039/c5ra22272a,Oxides
mp-2383161,WO3,True,True,1.3585,-2.190860606562499,[2.76],,10.1039/c5ra25601a,Oxides
mp-2383161,WO3,True,True,1.3585,-2.190860606562499,[2.7],,10.1039/c5ra26582g,Oxides
mp-2383161,WO3,True,True,1.3585,-2.190860606562499,[2.93],,10.1039/c5ra26582g,Oxides
mp-2383161,WO3,True,True,1.3585,-2.190860606562499,[2.7],,10.1039/c5ta02528a,Oxides
mp-2383161,WO3,True,True,1.3585,-2.190860606562499,[2.8],,10.1039/c5ta10180h,Oxides
mp-2383161,WO3,True,True,1.3585,-2.190860606562499,[2.36],,10.1039/c5tc01125f,Oxides
mp-2383161,WO3,True,True,1.3585,-2.190860606562499,[2.8],,10.1039/c6cy01449f,Oxides
mp-2383161,WO3,True,True,1.3585,-2.190860606562499,[2.87],,10.1039/c6ra04642h,Oxides
mp-2383161,WO3,True,True,1.3585,-2.190860606562499,[2.7],,10.1039/c6ra12589a,Oxides
mp-2383161,WO3,True,True,1.3585,-2.190860606562499,[2.6],,10.1039/c6ra13500e,Oxides
mp-2383161,WO3,True,True,1.3585,-2.190860606562499,[2.65],,10.1039/c6ra13500e,Oxides
mp-2383161,WO3,True,True,1.3585,-2.190860606562499,[2.8],,10.1039/c6ra24935c,Oxides
mp-2383161,WO3,True,True,1.3585,-2.190860606562499,[2.6],,10.1039/c6ra25272a,Oxides
mp-2383161,WO3,True,True,1.3585,-2.190860606562499,[2.7],,10.1039/c6se00001k,Oxides
mp-2383161,WO3,True,True,1.3585,-2.190860606562499,[2.89],,10.1039/c6se00001k,Oxides
mp-2383161,WO3,True,True,1.3585,-2.190860606562499,[2.6],,10.1039/c6ta03786k,Oxides
mp-2383161,WO3,True,True,1.3585,-2.190860606562499,[2.7],,10.1039/c6ta03853k,Oxides
mp-2383161,WO3,True,True,1.3585,-2.190860606562499,[2.8],,10.1039/c6ta07997k,Oxides
mp-2383161,WO3,True,True,1.3585,-2.190860606562499,[2.6],,10.1039/c7dt02063e,Oxides
mp-2383161,WO3,True,True,1.3585,-2.190860606562499,[2.8],,10.1039/c7ee00777a,Oxides
mp-2383161,WO3,True,True,1.3585,-2.190860606562499,[0.0],,10.1039/c7ra03389c,Oxides
mp-2383161,WO3,True,True,1.3585,-2.190860606562499,[2.85],,10.1039/c7se00483d,Oxides
mp-2383161,WO3,True,True,1.3585,-2.190860606562499,[2.61],,10.1039/c7se00483d,Oxides
mp-2383161,WO3,True,True,1.3585,-2.190860606562499,[2.45],,10.1039/c7se00483d,Oxides
mp-2383161,WO3,True,True,1.3585,-2.190860606562499,[1.9],,10.1039/c7tc03896h,Oxides
mp-2383161,WO3,True,True,1.3585,-2.190860606562499,[3.2],,10.1039/c7tc04189f,Oxides
mp-2383161,WO3,True,True,1.3585,-2.190860606562499,[2.86],,10.1039/c8cc08614a,Oxides
mp-2383161,WO3,True,True,1.3585,-2.190860606562499,[1.92],,10.1039/c8cp02044b,Oxides
mp-2383161,WO3,True,True,1.3585,-2.190860606562499,[2.7],,10.1039/c8cs00997j,Oxides
mp-2383161,WO3,True,True,1.3585,-2.190860606562499,[2.8],,10.1039/c8ra06477f,Oxides
mp-2383161,WO3,True,True,1.3585,-2.190860606562499,[2.4],,10.1039/c8ta00555a,Oxides
mp-2383161,WO3,True,True,1.3585,-2.190860606562499,[1.31],,10.1039/c8ta12238e,Oxides
mp-2383161,WO3,True,True,1.3585,-2.190860606562499,[2.6],,10.1039/c9cc03621k,Oxides
mp-2383161,WO3,True,True,1.3585,-2.190860606562499,[2.6],,10.1039/c9ce01183h,Oxides
mp-2383161,WO3,True,True,1.3585,-2.190860606562499,[2.98],,10.1039/c9cp05944j,Oxides
mp-2383161,WO3,True,True,1.3585,-2.190860606562499,[1.65],,10.1039/c9cp05944j,Oxides
mp-2383161,WO3,True,True,1.3585,-2.190860606562499,[2.27],,10.1039/c9cp05944j,Oxides
mp-2383161,WO3,True,True,1.3585,-2.190860606562499,[0.26],,10.1039/c9cs00172g,Oxides
mp-2383161,WO3,True,True,1.3585,-2.190860606562499,[2.8],,10.1039/c9cy01170f,Oxides
mp-2383161,WO3,True,True,1.3585,-2.190860606562499,[2.7],,10.1039/c9nj04369a,Oxides
mp-2383161,WO3,True,True,1.3585,-2.190860606562499,[2.82],,10.1039/c9nj04369a,Oxides
mp-2383161,WO3,True,True,1.3585,-2.190860606562499,[2.92],,10.1039/c9nr03474a,Oxides
mp-2383161,WO3,True,True,1.3585,-2.190860606562499,[2.96],,10.1039/c9nr03474a,Oxides
mp-2383161,WO3,True,True,1.3585,-2.190860606562499,[2.0],,10.1039/c9nr03474a,Oxides
mp-2383161,WO3,True,True,1.3585,-2.190860606562499,[2.75],,10.1039/c9nr09818f,Oxides
mp-2383161,WO3,True,True,1.3585,-2.190860606562499,[2.8],,10.1039/c9ra07355h,Oxides
mp-2383161,WO3,True,True,1.3585,-2.190860606562499,[2.7],,10.1039/c9se00337a,Oxides
mp-2383161,WO3,True,True,1.3585,-2.190860606562499,[2.62],,10.1039/c9ta01044k,Oxides
mp-2383161,WO3,True,True,1.3585,-2.190860606562499,[2.7],,10.1039/d0ce00185f,Oxides
mp-2383161,WO3,True,True,1.3585,-2.190860606562499,[2.7],,10.1039/d0na00158a,Oxides
mp-2383161,WO3,True,True,1.3585,-2.190860606562499,[2.6],,10.1039/d0se01305f,Oxides
mp-2383161,WO3,True,True,1.3585,-2.190860606562499,[2.7],,10.1039/b702097j,Oxides
mp-2383161,WO3,True,True,1.3585,-2.190860606562499,[2.6],,10.1039/b702097j,Oxides
mp-2383161,WO3,True,True,1.3585,-2.190860606562499,[2.5],,10.1039/b807426g,Oxides
mp-2383161,WO3,True,True,1.3585,-2.190860606562499,[2.7],,10.1039/c1jm11629k,Oxides
mp-2383161,WO3,True,True,1.3585,-2.190860606562499,[2.6],,10.1039/c1jm14785d,Oxides
mp-2383161,WO3,True,True,1.3585,-2.190860606562499,[2.2],,10.1039/c2cp40976c,Oxides
mp-2383161,WO3,True,True,1.3585,-2.190860606562499,[2.62],,10.1039/c2cp40976c,Oxides
mp-2383161,WO3,True,True,1.3585,-2.190860606562499,[2.6],,10.1039/c2cp40976c,Oxides
mp-2383161,WO3,True,True,1.3585,-2.190860606562499,[2.77],,10.1039/c2cp40976c,Oxides
mp-2383161,WO3,True,True,1.3585,-2.190860606562499,[2.7],,10.1039/c2cp44577h,Oxides
mp-2383161,WO3,True,True,1.3585,-2.190860606562499,[3.0],,10.1039/c2cs35267b,Oxides
mp-2383161,WO3,True,True,1.3585,-2.190860606562499,[2.7],,10.1039/c2cs35373c,Oxides
mp-2383161,WO3,True,True,1.3585,-2.190860606562499,[2.7],,10.1039/c2ee21801a,Oxides
mp-2383161,WO3,True,True,1.3585,-2.190860606562499,[2.7],,10.1039/c2ee22560c,Oxides
mp-2383161,WO3,True,True,1.3585,-2.190860606562499,[2.8],,10.1039/c2jm15477c,Oxides
mp-2383161,WO3,True,True,1.3585,-2.190860606562499,[3.3],,10.1039/c2ra00217e,Oxides
mp-2383161,WO3,True,True,1.3585,-2.190860606562499,[3.21],,10.1039/c2ra00217e,Oxides
mp-2383161,WO3,True,True,1.3585,-2.190860606562499,[2.6],,10.1039/c3ce42410c,Oxides
mp-2383161,WO3,True,True,1.3585,-2.190860606562499,[0.8],,10.1039/c3cs00007a,Oxides
mp-2383161,WO3,True,True,1.3585,-2.190860606562499,[2.7],,10.1039/c3cy00345k,Oxides
mp-2383161,WO3,True,True,1.3585,-2.190860606562499,[2.71],,10.1039/c3cy00345k,Oxides
mp-2383161,WO3,True,True,1.3585,-2.190860606562499,[2.68],,10.1039/c3dt00115f,Oxides
mp-2383161,WO3,True,True,1.3585,-2.190860606562499,[2.6],,10.1039/c3ee43048k,Oxides
mp-2383161,WO3,True,True,1.3585,-2.190860606562499,[2.66],,10.1039/c3nj00934c,Oxides