mpids,formula,is_stable,theoretical,band_gap,formation_energy_per_atom,Value,Temperature_raw_value,DOI,compound_type
mp-390,TiO2,True,False,2.0586,-3.508055451944444,[3.2],,10.1007/s10904-019-01282-1,Double anions
mp-390,TiO2,True,False,2.0586,-3.508055451944444,[3.2],,10.1007/s10904-020-01467-z,Double anions
mp-390,TiO2,True,False,2.0586,-3.508055451944444,[3.36],,10.1007/s10904-020-01598-3,Double anions
mp-390,TiO2,True,False,2.0586,-3.508055451944444,[3.2],,10.1007/s10904-020-01679-3,Double anions
mp-390,TiO2,True,False,2.0586,-3.508055451944444,[3.2],,10.1007/s10934-015-0117-4,Double anions
mp-390,TiO2,True,False,2.0586,-3.508055451944444,[4.0],,10.1007/s10948-018-4843-0,Double anions
mp-390,TiO2,True,False,2.0586,-3.508055451944444,[3.1],,10.1007/s10948-018-4945-8,Double anions
mp-390,TiO2,True,False,2.0586,-3.508055451944444,[3.2],,10.1007/s10948-019-05169-7,Double anions
mp-390,TiO2,True,False,2.0586,-3.508055451944444,[3.17],,10.1007/s10948-019-05169-7,Double anions
mp-390,TiO2,True,False,2.0586,-3.508055451944444,[3.58],,10.1007/s10948-019-05169-7,Double anions
mp-390,TiO2,True,False,2.0586,-3.508055451944444,[2.86],,10.1007/s10948-019-05169-7,Double anions
mp-390,TiO2,True,False,2.0586,-3.508055451944444,[1.9],,10.1007/s10948-019-05169-7,Double anions
mp-390,TiO2,True,False,2.0586,-3.508055451944444,[3.2],,10.1007/s10965-019-1762-0,Double anions
mp-390,TiO2,True,False,2.0586,-3.508055451944444,[3.2],,10.1007/s10971-011-2488-6,Double anions
mp-390,TiO2,True,False,2.0586,-3.508055451944444,[3.32],,10.1007/s10971-011-2546-0,Double anions
mp-390,TiO2,True,False,2.0586,-3.508055451944444,[3.2],,10.1007/s10971-011-2546-0,Double anions
mp-390,TiO2,True,False,2.0586,-3.508055451944444,[3.2],,10.1007/s10971-011-2560-2,Double anions
mp-390,TiO2,True,False,2.0586,-3.508055451944444,[2.01],,10.1007/s10971-012-2954-9,Double anions
mp-390,TiO2,True,False,2.0586,-3.508055451944444,[3.2],,10.1007/s10971-013-3069-7,Double anions
mp-390,TiO2,True,False,2.0586,-3.508055451944444,[3.2],,10.1007/s10971-014-3389-2,Double anions
mp-390,TiO2,True,False,2.0586,-3.508055451944444,[3.2],,10.1007/s10971-014-3502-6,Double anions
mp-390,TiO2,True,False,2.0586,-3.508055451944444,[3.1],,10.1007/s10971-014-3535-x,Double anions
mp-390,TiO2,True,False,2.0586,-3.508055451944444,[3.12],,10.1007/s10971-015-3661-0,Double anions
mp-390,TiO2,True,False,2.0586,-3.508055451944444,[3.2],,10.1007/s10971-015-3715-3,Double anions
mp-390,TiO2,True,False,2.0586,-3.508055451944444,[1.93],,10.1007/s10971-015-3715-3,Double anions
mp-390,TiO2,True,False,2.0586,-3.508055451944444,[3.2],,10.1007/s10971-016-4017-0,Double anions
mp-390,TiO2,True,False,2.0586,-3.508055451944444,[3.2],,10.1007/s10971-017-4355-6,Double anions
mp-390,TiO2,True,False,2.0586,-3.508055451944444,[3.2],,10.1007/s10971-017-4391-2,Double anions
mp-390,TiO2,True,False,2.0586,-3.508055451944444,[3.17],,10.1007/s10971-017-4544-3,Double anions
mp-390,TiO2,True,False,2.0586,-3.508055451944444,[1.5],,10.1007/s10971-019-05120-1,Double anions
mp-390,TiO2,True,False,2.0586,-3.508055451944444,[3.2],,10.1007/s10971-019-05176-z,Double anions
mp-390,TiO2,True,False,2.0586,-3.508055451944444,[2.88],,10.1007/s10971-019-05198-7,Double anions
mp-390,TiO2,True,False,2.0586,-3.508055451944444,[3.2],,10.1007/s10971-020-05217-y,Double anions
mp-390,TiO2,True,False,2.0586,-3.508055451944444,[3.19],600,10.1007/s10973-011-1852-7,Double anions
mp-390,TiO2,True,False,2.0586,-3.508055451944444,[3.0],,10.1007/s11051-011-0264-8,Double anions
mp-390,TiO2,True,False,2.0586,-3.508055451944444,[3.31],,10.1007/s11051-012-1227-4,Double anions
mp-390,TiO2,True,False,2.0586,-3.508055451944444,[3.2],,10.1007/s11051-013-1923-8,Double anions
mp-390,TiO2,True,False,2.0586,-3.508055451944444,[3.2],,10.1007/s11051-014-2336-z,Double anions
mp-390,TiO2,True,False,2.0586,-3.508055451944444,[3.2],,10.1007/s11051-014-2705-7,Double anions
mp-390,TiO2,True,False,2.0586,-3.508055451944444,[3.26],,10.1007/s11051-014-2779-2,Double anions
mp-390,TiO2,True,False,2.0586,-3.508055451944444,[3.2],,10.1007/s11051-015-2882-z,Double anions
mp-390,TiO2,True,False,2.0586,-3.508055451944444,[3.2],,10.1007/s11051-015-2945-1,Double anions
mp-390,TiO2,True,False,2.0586,-3.508055451944444,[2.41],,10.1007/s11051-016-3519-6,Double anions
mp-390,TiO2,True,False,2.0586,-3.508055451944444,[3.2],,10.1007/s11051-018-4270-y,Double anions
mp-390,TiO2,True,False,2.0586,-3.508055451944444,[0.65],,10.1007/s11051-019-4648-5,Double anions
mp-390,TiO2,True,False,2.0586,-3.508055451944444,[3.2],,10.1007/s11051-020-05012-4,Double anions
mp-390,TiO2,True,False,2.0586,-3.508055451944444,[3.12],,10.1007/s11082-014-0033-x,Double anions
mp-390,TiO2,True,False,2.0586,-3.508055451944444,[1.65],200 to 350,10.1007/s11082-017-0985-8,Double anions
mp-390,TiO2,True,False,2.0586,-3.508055451944444,[3.2],,10.1007/s11144-011-0404-2,Double anions
mp-390,TiO2,True,False,2.0586,-3.508055451944444,[3.2],,10.1007/s11144-012-0439-z,Double anions
mp-390,TiO2,True,False,2.0586,-3.508055451944444,[3.2],,10.1007/s11144-014-0815-y,Double anions
mp-390,TiO2,True,False,2.0586,-3.508055451944444,[3.1],,10.1007/s11144-015-0911-7,Double anions
mp-390,TiO2,True,False,2.0586,-3.508055451944444,[3.25],,10.1007/s11144-016-1030-9,Double anions
mp-390,TiO2,True,False,2.0586,-3.508055451944444,[3.2],,10.1007/s11144-017-1319-3,Double anions
mp-390,TiO2,True,False,2.0586,-3.508055451944444,[3.2],,10.1007/s11144-018-1369-1,Double anions
mp-390,TiO2,True,False,2.0586,-3.508055451944444,[3.2],,10.1007/s11144-019-01581-1,Double anions
mp-390,TiO2,True,False,2.0586,-3.508055451944444,[3.02],,10.1007/s11164-009-0030-z,Double anions
mp-390,TiO2,True,False,2.0586,-3.508055451944444,[3.2],,10.1007/s11164-009-0093-x,Double anions
mp-390,TiO2,True,False,2.0586,-3.508055451944444,[3.3],,10.1007/s11164-010-0119-4,Double anions
mp-390,TiO2,True,False,2.0586,-3.508055451944444,[3.1],,10.1007/s11164-010-0119-4,Double anions
mp-390,TiO2,True,False,2.0586,-3.508055451944444,[3.0],,10.1007/s11164-010-0119-4,Double anions
mp-390,TiO2,True,False,2.0586,-3.508055451944444,[3.2],,10.1007/s11164-011-0368-x,Double anions
mp-390,TiO2,True,False,2.0586,-3.508055451944444,[3.2],,10.1007/s11164-013-1476-6,Double anions
mp-390,TiO2,True,False,2.0586,-3.508055451944444,[2.8],,10.1007/s11164-013-1476-6,Double anions
mp-390,TiO2,True,False,2.0586,-3.508055451944444,[3.22],,10.1007/s11164-014-1546-4,Double anions
mp-390,TiO2,True,False,2.0586,-3.508055451944444,[3.2],,10.1007/s11164-014-1836-x,Double anions
mp-390,TiO2,True,False,2.0586,-3.508055451944444,[2.94],,10.1007/s11164-014-1836-x,Double anions
mp-390,TiO2,True,False,2.0586,-3.508055451944444,[3.2],,10.1007/s11164-015-1932-6,Double anions
mp-390,TiO2,True,False,2.0586,-3.508055451944444,[3.2],,10.1007/s11164-015-2347-0,Double anions
mp-390,TiO2,True,False,2.0586,-3.508055451944444,[3.2],,10.1007/s11164-015-2385-7,Double anions
mp-390,TiO2,True,False,2.0586,-3.508055451944444,[2.92],,10.1007/s11164-016-2491-1,Double anions
mp-390,TiO2,True,False,2.0586,-3.508055451944444,[3.04],,10.1007/s11164-016-2535-6,Double anions
mp-390,TiO2,True,False,2.0586,-3.508055451944444,[2.64],,10.1007/s11164-016-2711-8,Double anions
mp-390,TiO2,True,False,2.0586,-3.508055451944444,[3.2],,10.1007/s11164-017-2910-y,Double anions
mp-390,TiO2,True,False,2.0586,-3.508055451944444,[3.2],,10.1007/s11164-017-3051-z,Double anions
mp-390,TiO2,True,False,2.0586,-3.508055451944444,[3.2],,10.1007/s11164-018-3268-5,Double anions
mp-390,TiO2,True,False,2.0586,-3.508055451944444,[2.8],,10.1007/s11164-018-3268-5,Double anions
mp-390,TiO2,True,False,2.0586,-3.508055451944444,[2.83],,10.1007/s11164-018-3296-1,Double anions
mp-390,TiO2,True,False,2.0586,-3.508055451944444,[3.2],,10.1007/s11164-018-3296-1,Double anions
mp-390,TiO2,True,False,2.0586,-3.508055451944444,[3.27],,10.1007/s11164-018-3296-1,Double anions
mp-390,TiO2,True,False,2.0586,-3.508055451944444,[3.2],,10.1007/s11164-018-3499-5,Double anions
mp-390,TiO2,True,False,2.0586,-3.508055451944444,[3.2],,10.1007/s11164-019-03763-x,Double anions
mp-390,TiO2,True,False,2.0586,-3.508055451944444,[3.2],,10.1007/s11164-019-04023-8,Double anions
mp-390,TiO2,True,False,2.0586,-3.508055451944444,[2.97],,10.1007/s11164-019-04023-8,Double anions
mp-390,TiO2,True,False,2.0586,-3.508055451944444,[3.59],,10.1007/s11164-019-04064-z,Double anions
mp-390,TiO2,True,False,2.0586,-3.508055451944444,[3.2],,10.1007/s11164-020-04272-y,Double anions
mp-390,TiO2,True,False,2.0586,-3.508055451944444,[3.2],,10.1007/s11237-020-09632-8,Double anions
mp-390,TiO2,True,False,2.0586,-3.508055451944444,[3.26],,10.1007/s11237-020-09632-8,Double anions
mp-390,TiO2,True,False,2.0586,-3.508055451944444,[3.2],,10.1007/s11244-008-9078-z,Double anions
mp-390,TiO2,True,False,2.0586,-3.508055451944444,[3.0],,10.1007/s11244-014-0346-9,Double anions
mp-390,TiO2,True,False,2.0586,-3.508055451944444,[3.2],,10.1007/s11270-010-0386-0,Double anions
mp-390,TiO2,True,False,2.0586,-3.508055451944444,[3.2],,10.1007/s11270-012-1396-x,Double anions
mp-390,TiO2,True,False,2.0586,-3.508055451944444,[3.2],,10.1007/s11270-018-4006-8,Double anions
mp-390,TiO2,True,False,2.0586,-3.508055451944444,[2.67],,10.1007/s11270-018-4006-8,Double anions
mp-390,TiO2,True,False,2.0586,-3.508055451944444,[3.02],,10.1007/s11356-012-1415-x,Double anions
mp-390,TiO2,True,False,2.0586,-3.508055451944444,[3.2],,10.1007/s11356-013-2059-1,Double anions
mp-390,TiO2,True,False,2.0586,-3.508055451944444,[3.2],,10.1007/s11356-014-3356-z,Double anions
mp-390,TiO2,True,False,2.0586,-3.508055451944444,[3.0],,10.1007/s11356-016-6457-z,Double anions
mp-390,TiO2,True,False,2.0586,-3.508055451944444,[3.2],,10.1007/s11356-016-7232-x,Double anions
mp-390,TiO2,True,False,2.0586,-3.508055451944444,[3.05],,10.1007/s11356-017-0944-8,Double anions
mp-390,TiO2,True,False,2.0586,-3.508055451944444,[5.81],,10.1007/s11356-017-0944-8,Double anions
mp-390,TiO2,True,False,2.0586,-3.508055451944444,[2.8],,10.1007/s11356-017-1179-4,Double anions
mp-390,TiO2,True,False,2.0586,-3.508055451944444,[3.2],,10.1007/s11356-017-9003-8,Double anions
mp-390,TiO2,True,False,2.0586,-3.508055451944444,[3.0],,10.1007/s11356-017-9571-7,Double anions
mp-390,TiO2,True,False,2.0586,-3.508055451944444,[2.8],,10.1007/s11356-018-1382-y,Double anions
mp-390,TiO2,True,False,2.0586,-3.508055451944444,[3.23],,10.1007/s11356-018-1382-y,Double anions
mp-390,TiO2,True,False,2.0586,-3.508055451944444,[3.2],,10.1007/s11356-018-1611-4,Double anions
mp-390,TiO2,True,False,2.0586,-3.508055451944444,[3.2],,10.1007/s11356-018-2212-y,Double anions
mp-390,TiO2,True,False,2.0586,-3.508055451944444,[3.12],,10.1007/s11356-018-2212-y,Double anions
mp-390,TiO2,True,False,2.0586,-3.508055451944444,[2.9],,10.1007/s11356-020-07748-x,Double anions
mp-390,TiO2,True,False,2.0586,-3.508055451944444,[3.2],,10.1007/s11356-020-07748-x,Double anions
mp-390,TiO2,True,False,2.0586,-3.508055451944444,[3.2],,10.1007/s11356-020-09303-0,Double anions
mp-390,TiO2,True,False,2.0586,-3.508055451944444,[2.91],,10.1007/s11356-020-09303-0,Double anions
mp-390,TiO2,True,False,2.0586,-3.508055451944444,[3.1],,10.1007/s11434-014-0267-9,Double anions
mp-390,TiO2,True,False,2.0586,-3.508055451944444,[3.2],,10.1007/s11468-012-9418-5,Double anions
mp-390,TiO2,True,False,2.0586,-3.508055451944444,[3.2],,10.1007/s11468-016-0235-0,Double anions
mp-390,TiO2,True,False,2.0586,-3.508055451944444,[3.79],400,10.1007/s11468-016-0235-0,Double anions
mp-390,TiO2,True,False,2.0586,-3.508055451944444,[3.3],,10.1007/s11468-018-0760-0,Double anions
mp-390,TiO2,True,False,2.0586,-3.508055451944444,[3.25],,10.1007/s11468-018-0794-3,Double anions
mp-390,TiO2,True,False,2.0586,-3.508055451944444,[3.0],,10.1007/s11581-014-1289-7,Double anions
mp-390,TiO2,True,False,2.0586,-3.508055451944444,[3.2],,10.1007/s11671-010-9658-2,Double anions
mp-390,TiO2,True,False,2.0586,-3.508055451944444,[3.2],,10.1007/s11696-017-0152-5,Double anions
mp-390,TiO2,True,False,2.0586,-3.508055451944444,[3.2],,10.1007/s11696-018-0463-1,Double anions
mp-390,TiO2,True,False,2.0586,-3.508055451944444,[3.2],,10.1007/s11696-018-0667-4,Double anions
mp-390,TiO2,True,False,2.0586,-3.508055451944444,[3.2],,10.1007/s11998-016-9870-9,Double anions
mp-390,TiO2,True,False,2.0586,-3.508055451944444,[3.32],,10.1007/s12034-016-1205-z,Double anions
mp-390,TiO2,True,False,2.0586,-3.508055451944444,[3.0],,10.1007/s12034-019-1929-7,Double anions
mp-390,TiO2,True,False,2.0586,-3.508055451944444,[3.1],,10.1007/s12039-014-0747-0,Double anions
mp-390,TiO2,True,False,2.0586,-3.508055451944444,[3.2],,10.1007/s12161-018-1261-7,Double anions
mp-390,TiO2,True,False,2.0586,-3.508055451944444,[3.2],,10.1007/s12598-011-0277-6,Double anions
mp-390,TiO2,True,False,2.0586,-3.508055451944444,[3.2],,10.1007/s12598-016-0807-3,Double anions
mp-390,TiO2,True,False,2.0586,-3.508055451944444,[3.2],,10.1007/s12648-020-01720-8,Double anions
mp-390,TiO2,True,False,2.0586,-3.508055451944444,[3.0],,10.1007/s12665-020-09194-x,Double anions
mp-390,TiO2,True,False,2.0586,-3.508055451944444,[3.2],,10.1007/s12678-014-0223-0,Double anions
mp-390,TiO2,True,False,2.0586,-3.508055451944444,[3.17],,10.1007/s13197-019-03913-4,Double anions
mp-390,TiO2,True,False,2.0586,-3.508055451944444,[3.3],,10.1007/s13204-012-0108-6,Double anions
mp-390,TiO2,True,False,2.0586,-3.508055451944444,[3.02],,10.1007/s13204-019-00980-z,Double anions
mp-390,TiO2,True,False,2.0586,-3.508055451944444,[3.23],,10.1007/s13204-019-00980-z,Double anions
mp-390,TiO2,True,False,2.0586,-3.508055451944444,[3.1],,10.1007/s13204-019-01106-1,Double anions
mp-390,TiO2,True,False,2.0586,-3.508055451944444,[3.0],,10.1007/s13204-019-01149-4,Double anions
mp-390,TiO2,True,False,2.0586,-3.508055451944444,[3.1],,10.1007/s13204-019-01149-4,Double anions
mp-390,TiO2,True,False,2.0586,-3.508055451944444,[3.18],,10.1007/s13204-019-01193-0,Double anions
mp-390,TiO2,True,False,2.0586,-3.508055451944444,[3.2],,10.1007/s13204-019-01193-0,Double anions
mp-390,TiO2,True,False,2.0586,-3.508055451944444,[3.27],,10.1007/s13391-018-0049-7,Double anions
mp-390,TiO2,True,False,2.0586,-3.508055451944444,[3.2],,10.1007/s13738-019-01658-7,Double anions
mp-390,TiO2,True,False,2.0586,-3.508055451944444,[0.2],,10.1007/s13762-013-0466-y,Double anions
mp-390,TiO2,True,False,2.0586,-3.508055451944444,[3.2],,10.1007/s13762-017-1618-2,Double anions
mp-390,TiO2,True,False,2.0586,-3.508055451944444,[3.2],,10.1007/s13762-020-02753-6,Double anions
mp-390,TiO2,True,False,2.0586,-3.508055451944444,[3.2],,10.1007/s13762-020-02952-1,Double anions
mp-390,TiO2,True,False,2.0586,-3.508055451944444,[3.2],,10.1007/s40089-018-0230-x,Double anions
mp-390,TiO2,True,False,2.0586,-3.508055451944444,[1.0],,10.1007/s40089-018-0230-x,Double anions
mp-390,TiO2,True,False,2.0586,-3.508055451944444,[3.2],,10.1007/s40090-016-0075-y,Double anions
mp-390,TiO2,True,False,2.0586,-3.508055451944444,[3.2],,10.1007/s40195-013-0009-z,Double anions
mp-390,TiO2,True,False,2.0586,-3.508055451944444,[3.2],,10.1007/s40201-020-00502-y,Double anions
mp-390,TiO2,True,False,2.0586,-3.508055451944444,[3.2],,10.1007/s40820-017-0150-8,Double anions
mp-390,TiO2,True,False,2.0586,-3.508055451944444,[3.1],,10.1007/s40820-017-0150-8,Double anions
mp-390,TiO2,True,False,2.0586,-3.508055451944444,[3.2],,10.1007/s40820-019-0335-4,Double anions
mp-390,TiO2,True,False,2.0586,-3.508055451944444,[3.08],,10.1007/s41061-019-0264-1,Double anions
mp-390,TiO2,True,False,2.0586,-3.508055451944444,[3.24],,10.1007/s41742-017-0021-7,Double anions
mp-390,TiO2,True,False,2.0586,-3.508055451944444,[3.2],,10.1007/s42114-018-0025-6,Double anions
mp-390,TiO2,True,False,2.0586,-3.508055451944444,[2.31],,10.1007/s42243-018-0059-6,Double anions
mp-390,TiO2,True,False,2.0586,-3.508055451944444,[3.2],,10.1007/s42452-018-0054-3,Double anions
mp-390,TiO2,True,False,2.0586,-3.508055451944444,[3.2],,10.1007/s42452-019-0247-4,Double anions
mp-390,TiO2,True,False,2.0586,-3.508055451944444,[3.0],650,10.1007/s42452-019-0247-4,Double anions
mp-390,TiO2,True,False,2.0586,-3.508055451944444,[3.07],500,10.1007/s42452-019-0247-4,Double anions
mp-390,TiO2,True,False,2.0586,-3.508055451944444,[3.16],600,10.1007/s42452-019-0247-4,Double anions
mp-390,TiO2,True,False,2.0586,-3.508055451944444,[3.0],,10.1007/s42452-019-0247-4,Double anions
mp-390,TiO2,True,False,2.0586,-3.508055451944444,[3.3],,10.1007/s42452-019-0247-4,Double anions
mp-390,TiO2,True,False,2.0586,-3.508055451944444,[3.2],,10.1007/s42452-019-0857-x,Double anions
mp-390,TiO2,True,False,2.0586,-3.508055451944444,[2.74],,10.1007/s42452-019-0857-x,Double anions
mp-390,TiO2,True,False,2.0586,-3.508055451944444,[2.9],,10.1007/s42452-019-0978-2,Double anions
mp-390,TiO2,True,False,2.0586,-3.508055451944444,[3.65],,10.1038/ncomms8338,Double anions
mp-390,TiO2,True,False,2.0586,-3.508055451944444,[5.3],,10.1038/s41467-020-14438-2,Double anions
mp-390,TiO2,True,False,2.0586,-3.508055451944444,[3.2],,10.1038/s41467-020-15484-6,Double anions
mp-390,TiO2,True,False,2.0586,-3.508055451944444,[3.1],,10.1038/s41467-020-17485-x,Double anions
mp-390,TiO2,True,False,2.0586,-3.508055451944444,[2.7],,10.1038/s41467-020-17485-x,Double anions
mp-390,TiO2,True,False,2.0586,-3.508055451944444,[3.0],,10.1038/s41598-017-01124-5,Double anions
mp-390,TiO2,True,False,2.0586,-3.508055451944444,[3.2],,10.1038/s41598-017-09601-7,Double anions
mp-390,TiO2,True,False,2.0586,-3.508055451944444,[3.2],,10.1038/s41598-017-18051-0,Double anions
mp-390,TiO2,True,False,2.0586,-3.508055451944444,[3.2],,10.1038/s41598-018-30747-5,Double anions
mp-390,TiO2,True,False,2.0586,-3.508055451944444,[3.0],,10.1038/s41598-018-32130-w,Double anions
mp-390,TiO2,True,False,2.0586,-3.508055451944444,[3.2],,10.1038/s41598-018-33108-4,Double anions
mp-390,TiO2,True,False,2.0586,-3.508055451944444,[3.64],,10.1038/s41598-018-35154-4,Double anions
mp-390,TiO2,True,False,2.0586,-3.508055451944444,[3.2],,10.1038/s41598-019-40775-4,Double anions
mp-390,TiO2,True,False,2.0586,-3.508055451944444,[3.2],,10.1038/s41598-019-41126-z,Double anions
mp-390,TiO2,True,False,2.0586,-3.508055451944444,[3.1],,10.1038/s41598-019-45756-1,Double anions
mp-390,TiO2,True,False,2.0586,-3.508055451944444,[3.15],,10.1038/s41598-020-72195-0,Double anions
mp-390,TiO2,True,False,2.0586,-3.508055451944444,[2.46],,10.1038/s41598-020-72682-4,Double anions
mp-390,TiO2,True,False,2.0586,-3.508055451944444,[3.0],37,10.1038/s41598-020-72682-4,Double anions
mp-390,TiO2,True,False,2.0586,-3.508055451944444,[3.2],,10.1038/srep10461,Double anions
mp-390,TiO2,True,False,2.0586,-3.508055451944444,[3.2],,10.1038/srep17800,Double anions
mp-390,TiO2,True,False,2.0586,-3.508055451944444,[3.2],,10.1038/srep20397,Double anions
mp-390,TiO2,True,False,2.0586,-3.508055451944444,[1.53],,10.1038/srep20397,Double anions
mp-390,TiO2,True,False,2.0586,-3.508055451944444,[3.7],,10.1038/srep20397,Double anions
mp-390,TiO2,True,False,2.0586,-3.508055451944444,[3.2],,10.1038/srep26055,Double anions
mp-390,TiO2,True,False,2.0586,-3.508055451944444,[3.2],,10.1038/srep30829,Double anions
mp-390,TiO2,True,False,2.0586,-3.508055451944444,[3.2],,10.1038/srep36099,Double anions
mp-390,TiO2,True,False,2.0586,-3.508055451944444,[2.8],,10.1038/srep41253,Double anions
mp-390,TiO2,True,False,2.0586,-3.508055451944444,[2.62],,10.1038/srep41978,Double anions
mp-390,TiO2,True,False,2.0586,-3.508055451944444,[3.0],,10.1134/S0036023620080124,Double anions
mp-390,TiO2,True,False,2.0586,-3.508055451944444,[3.2],,10.1134/S0036024420050027,Double anions
mp-390,TiO2,True,False,2.0586,-3.508055451944444,[2.4],,10.1134/S0036024420050027,Double anions
mp-390,TiO2,True,False,2.0586,-3.508055451944444,[3.2],,10.1134/S106378341904005X,Double anions
mp-390,TiO2,True,False,2.0586,-3.508055451944444,[3.0],,10.1186/1556-276X-8-459,Double anions
mp-390,TiO2,True,False,2.0586,-3.508055451944444,[3.3],298,10.1186/1556-276X-9-206,Double anions
mp-390,TiO2,True,False,2.0586,-3.508055451944444,[3.2],,10.1186/1556-276X-9-543,Double anions