mpids,formula,is_stable,theoretical,band_gap,formation_energy_per_atom,Value,Temperature_raw_value,DOI,compound_type
mp-390,TiO2,True,False,2.0586,-3.508055451944444,[3.2],,10.1007/s11243-014-9843-8,Double anions
mp-390,TiO2,True,False,2.0586,-3.508055451944444,[3.12],,10.1007/s11243-018-0271-z,Double anions
mp-390,TiO2,True,False,2.0586,-3.508055451944444,[2.2],,10.1007/s11244-020-01255-6,Double anions
mp-390,TiO2,True,False,2.0586,-3.508055451944444,[3.2],,10.1007/s11244-020-01289-w,Double anions
mp-390,TiO2,True,False,2.0586,-3.508055451944444,[3.2],,10.1007/s11244-020-01332-w,Double anions
mp-390,TiO2,True,False,2.0586,-3.508055451944444,[3.2],,10.1007/s11244-020-01359-z,Double anions
mp-390,TiO2,True,False,2.0586,-3.508055451944444,[3.2],,10.1007/s11270-007-9570-2,Double anions
mp-390,TiO2,True,False,2.0586,-3.508055451944444,[3.2],,10.1007/s11270-012-1207-4,Double anions
mp-390,TiO2,True,False,2.0586,-3.508055451944444,[3.2],,10.1007/s11270-014-1922-0,Double anions
mp-390,TiO2,True,False,2.0586,-3.508055451944444,[3.25],,10.1007/s11270-017-3533-z,Double anions
mp-390,TiO2,True,False,2.0586,-3.508055451944444,[3.0],,10.1007/s11270-017-3676-y,Double anions
mp-390,TiO2,True,False,2.0586,-3.508055451944444,[1.72],,10.1007/s11270-018-3881-3,Double anions
mp-390,TiO2,True,False,2.0586,-3.508055451944444,[3.2],,10.1007/s11356-014-2930-8,Double anions
mp-390,TiO2,True,False,2.0586,-3.508055451944444,[3.2],,10.1007/s11356-015-5570-8,Double anions
mp-390,TiO2,True,False,2.0586,-3.508055451944444,[3.0],,10.1007/s11356-015-5570-8,Double anions
mp-390,TiO2,True,False,2.0586,-3.508055451944444,[3.0],,10.1007/s11356-016-7470-y,Double anions
mp-390,TiO2,True,False,2.0586,-3.508055451944444,[3.2],,10.1007/s11356-016-7470-y,Double anions
mp-390,TiO2,True,False,2.0586,-3.508055451944444,[3.15],,10.1007/s11356-016-7470-y,Double anions
mp-390,TiO2,True,False,2.0586,-3.508055451944444,[3.2],,10.1007/s11356-016-8020-3,Double anions
mp-390,TiO2,True,False,2.0586,-3.508055451944444,[3.3],,10.1007/s11356-017-1023-x,Double anions
mp-390,TiO2,True,False,2.0586,-3.508055451944444,[3.0],,10.1007/s11356-018-1717-8,Double anions
mp-390,TiO2,True,False,2.0586,-3.508055451944444,[3.2],,10.1007/s11356-018-2102-3,Double anions
mp-390,TiO2,True,False,2.0586,-3.508055451944444,[3.14],,10.1007/s11356-019-04686-1,Double anions
mp-390,TiO2,True,False,2.0586,-3.508055451944444,[3.2],,10.1007/s11356-019-05079-0,Double anions
mp-390,TiO2,True,False,2.0586,-3.508055451944444,[3.2],,10.1007/s11356-019-05886-5,Double anions
mp-390,TiO2,True,False,2.0586,-3.508055451944444,[2.98],,10.1007/s11356-019-06674-x,Double anions
mp-390,TiO2,True,False,2.0586,-3.508055451944444,[3.2],,10.1007/s11356-019-06674-x,Double anions
mp-390,TiO2,True,False,2.0586,-3.508055451944444,[2.95],,10.1007/s11356-019-06674-x,Double anions
mp-390,TiO2,True,False,2.0586,-3.508055451944444,[3.2],,10.1007/s11356-020-10022-9,Double anions
mp-390,TiO2,True,False,2.0586,-3.508055451944444,[3.2],,10.1007/s11368-015-1139-x,Double anions
mp-390,TiO2,True,False,2.0586,-3.508055451944444,[3.2],,10.1007/s11468-014-9852-7,Double anions
mp-390,TiO2,True,False,2.0586,-3.508055451944444,[3.2],,10.1007/s11581-010-0442-1,Double anions
mp-390,TiO2,True,False,2.0586,-3.508055451944444,[3.0],,10.1007/s11581-010-0442-1,Double anions
mp-390,TiO2,True,False,2.0586,-3.508055451944444,[3.2],,10.1007/s11581-017-1977-1,Double anions
mp-390,TiO2,True,False,2.0586,-3.508055451944444,[3.29],,10.1007/s11581-017-1977-1,Double anions
mp-390,TiO2,True,False,2.0586,-3.508055451944444,[1.57],,10.1007/s11581-017-2256-x,Double anions
mp-390,TiO2,True,False,2.0586,-3.508055451944444,[3.04],,10.1007/s11581-017-2369-2,Double anions
mp-390,TiO2,True,False,2.0586,-3.508055451944444,[3.6],,10.1007/s11664-017-5668-5,Double anions
mp-390,TiO2,True,False,2.0586,-3.508055451944444,[3.2],,10.1007/s11666-009-9320-7,Double anions
mp-390,TiO2,True,False,2.0586,-3.508055451944444,[3.2],,10.1007/s11696-019-00964-x,Double anions
mp-390,TiO2,True,False,2.0586,-3.508055451944444,[3.0],,10.1007/s12034-018-1629-8,Double anions
mp-390,TiO2,True,False,2.0586,-3.508055451944444,[2.97],,10.1007/s12034-018-1629-8,Double anions
mp-390,TiO2,True,False,2.0586,-3.508055451944444,[3.2],,10.1007/s12598-019-01363-7,Double anions
mp-390,TiO2,True,False,2.0586,-3.508055451944444,[3.0],,10.1007/s12598-020-01414-4,Double anions
mp-390,TiO2,True,False,2.0586,-3.508055451944444,[3.02],,10.1007/s12647-013-0091-8,Double anions
mp-390,TiO2,True,False,2.0586,-3.508055451944444,[1.14],,10.1007/s12678-019-00576-9,Double anions
mp-390,TiO2,True,False,2.0586,-3.508055451944444,[3.2],,10.1007/s12678-020-00631-w,Double anions
mp-390,TiO2,True,False,2.0586,-3.508055451944444,[3.2],,10.1007/s13201-011-0004-3,Double anions
mp-390,TiO2,True,False,2.0586,-3.508055451944444,[3.2],,10.1007/s13201-015-0367-y,Double anions
mp-390,TiO2,True,False,2.0586,-3.508055451944444,[3.06],,10.1007/s13204-015-0474-y,Double anions
mp-390,TiO2,True,False,2.0586,-3.508055451944444,[3.2],,10.1007/s13204-015-0495-6,Double anions
mp-390,TiO2,True,False,2.0586,-3.508055451944444,[3.2],250,10.1007/s13204-015-0495-6,Double anions
mp-390,TiO2,True,False,2.0586,-3.508055451944444,[2.62],,10.1007/s13204-018-0888-4,Double anions
mp-390,TiO2,True,False,2.0586,-3.508055451944444,[3.0],,10.1007/s13204-020-01317-x,Double anions
mp-390,TiO2,True,False,2.0586,-3.508055451944444,[2.41],,10.1007/s13204-020-01317-x,Double anions
mp-390,TiO2,True,False,2.0586,-3.508055451944444,[3.2],,10.1007/s13205-013-0137-1,Double anions
mp-390,TiO2,True,False,2.0586,-3.508055451944444,[3.2],,10.1007/s13369-019-04328-1,Double anions
mp-390,TiO2,True,False,2.0586,-3.508055451944444,[3.2],,10.1007/s13391-018-0055-9,Double anions
mp-390,TiO2,True,False,2.0586,-3.508055451944444,[3.2],,10.1007/s13738-016-1021-9,Double anions
mp-390,TiO2,True,False,2.0586,-3.508055451944444,[3.2],,10.1007/s13738-017-1179-9,Double anions
mp-390,TiO2,True,False,2.0586,-3.508055451944444,[1.4],,10.1007/s13738-020-02109-4,Double anions
mp-390,TiO2,True,False,2.0586,-3.508055451944444,[3.2],,10.1007/s13762-016-1193-y,Double anions
mp-390,TiO2,True,False,2.0586,-3.508055451944444,[3.2],,10.1007/s13762-018-1755-2,Double anions
mp-390,TiO2,True,False,2.0586,-3.508055451944444,[3.3],,10.1007/s40097-014-0137-7,Double anions
mp-390,TiO2,True,False,2.0586,-3.508055451944444,[3.2],,10.1007/s40195-014-0049-z,Double anions
mp-390,TiO2,True,False,2.0586,-3.508055451944444,[3.2],,10.1007/s40195-014-0138-z,Double anions
mp-390,TiO2,True,False,2.0586,-3.508055451944444,[3.2],,10.1007/s40243-015-0054-9,Double anions
mp-390,TiO2,True,False,2.0586,-3.508055451944444,[3.2],,10.1007/s40243-016-0074-0,Double anions
mp-390,TiO2,True,False,2.0586,-3.508055451944444,[3.2],,10.1007/s41204-018-0035-1,Double anions
mp-390,TiO2,True,False,2.0586,-3.508055451944444,[3.2],,10.1007/s41204-020-00071-3,Double anions
mp-390,TiO2,True,False,2.0586,-3.508055451944444,[3.2],,10.1007/s41403-018-0048-x,Double anions
mp-390,TiO2,True,False,2.0586,-3.508055451944444,[3.2],,10.1007/s42114-020-00140-w,Double anions
mp-390,TiO2,True,False,2.0586,-3.508055451944444,[3.12],,10.1007/s42114-020-00140-w,Double anions
mp-390,TiO2,True,False,2.0586,-3.508055451944444,[2.99],,10.1007/s42114-020-00140-w,Double anions
mp-390,TiO2,True,False,2.0586,-3.508055451944444,[5.81],,10.1007/s42114-020-00140-w,Double anions
mp-390,TiO2,True,False,2.0586,-3.508055451944444,[3.3],,10.1007/s42452-018-0114-8,Double anions
mp-390,TiO2,True,False,2.0586,-3.508055451944444,[3.21],,10.1007/s42452-019-0253-6,Double anions
mp-390,TiO2,True,False,2.0586,-3.508055451944444,[3.25],,10.1007/s42452-020-2662-y,Double anions
mp-390,TiO2,True,False,2.0586,-3.508055451944444,[3.2],,10.1007/s42864-020-00032-y,Double anions
mp-390,TiO2,True,False,2.0586,-3.508055451944444,[3.3],,10.1038/ncomms12446,Double anions
mp-390,TiO2,True,False,2.0586,-3.508055451944444,[2.85],,10.1038/ncomms2728,Double anions
mp-390,TiO2,True,False,2.0586,-3.508055451944444,[4.2],,10.1038/nmat4451,Double anions
mp-390,TiO2,True,False,2.0586,-3.508055451944444,[3.3],,10.1038/nphoton.2013.238,Double anions
mp-390,TiO2,True,False,2.0586,-3.508055451944444,[3.61],,10.1038/s41467-017-00016-6,Double anions
mp-390,TiO2,True,False,2.0586,-3.508055451944444,[3.1],,10.1038/s41467-020-14333-w,Double anions
mp-390,TiO2,True,False,2.0586,-3.508055451944444,[3.3],,10.1038/s41467-020-14333-w,Double anions
mp-390,TiO2,True,False,2.0586,-3.508055451944444,[3.2],,10.1038/s41467-020-18532-3,Double anions
mp-390,TiO2,True,False,2.0586,-3.508055451944444,[3.13],,10.1038/s41598-017-01969-w,Double anions
mp-390,TiO2,True,False,2.0586,-3.508055451944444,[3.04],,10.1038/s41598-017-01969-w,Double anions
mp-390,TiO2,True,False,2.0586,-3.508055451944444,[3.6],,10.1038/s41598-017-07601-1,Double anions
mp-390,TiO2,True,False,2.0586,-3.508055451944444,[3.2],,10.1038/s41598-017-07601-1,Double anions
mp-390,TiO2,True,False,2.0586,-3.508055451944444,[3.09],,10.1038/s41598-018-19172-w,Double anions
mp-390,TiO2,True,False,2.0586,-3.508055451944444,[3.11],,10.1038/s41598-018-19172-w,Double anions
mp-390,TiO2,True,False,2.0586,-3.508055451944444,[3.2],,10.1038/s41598-018-21605-5,Double anions
mp-390,TiO2,True,False,2.0586,-3.508055451944444,[3.2],,10.1038/s41598-018-22572-7,Double anions
mp-390,TiO2,True,False,2.0586,-3.508055451944444,[2.9],,10.1038/s41598-018-29368-9,Double anions
mp-390,TiO2,True,False,2.0586,-3.508055451944444,[3.22],,10.1038/s41598-018-30050-3,Double anions
mp-390,TiO2,True,False,2.0586,-3.508055451944444,[2.05],,10.1038/s41598-019-41465-x,Double anions
mp-390,TiO2,True,False,2.0586,-3.508055451944444,[2.07],,10.1038/s41598-019-41465-x,Double anions
mp-390,TiO2,True,False,2.0586,-3.508055451944444,[3.18],,10.1038/s41598-019-42438-w,Double anions
mp-390,TiO2,True,False,2.0586,-3.508055451944444,[2.97],,10.1038/s41598-019-48516-3,Double anions
mp-390,TiO2,True,False,2.0586,-3.508055451944444,[3.2],,10.1038/s41598-019-55446-7,Double anions
mp-390,TiO2,True,False,2.0586,-3.508055451944444,[3.0],,10.1038/s42004-019-0179-3,Double anions
mp-390,TiO2,True,False,2.0586,-3.508055451944444,[3.2],,10.1038/srep00451,Double anions
mp-390,TiO2,True,False,2.0586,-3.508055451944444,[3.2],,10.1038/srep03018,Double anions
mp-390,TiO2,True,False,2.0586,-3.508055451944444,[3.1],,10.1038/srep09561,Double anions
mp-390,TiO2,True,False,2.0586,-3.508055451944444,[3.2],,10.1038/srep11424,Double anions
mp-390,TiO2,True,False,2.0586,-3.508055451944444,[2.85],,10.1038/srep20335,Double anions
mp-390,TiO2,True,False,2.0586,-3.508055451944444,[3.2],,10.1038/srep25212,Double anions
mp-390,TiO2,True,False,2.0586,-3.508055451944444,[3.0],,10.1038/srep27385,Double anions
mp-390,TiO2,True,False,2.0586,-3.508055451944444,[3.05],,10.1038/srep29902,Double anions
mp-390,TiO2,True,False,2.0586,-3.508055451944444,[3.02],,10.1038/srep30543,Double anions
mp-390,TiO2,True,False,2.0586,-3.508055451944444,[3.2],,10.1038/srep30650,Double anions
mp-390,TiO2,True,False,2.0586,-3.508055451944444,[3.2],,10.1038/srep32574,Double anions
mp-390,TiO2,True,False,2.0586,-3.508055451944444,[3.1],,10.1038/srep33715,Double anions
mp-390,TiO2,True,False,2.0586,-3.508055451944444,[3.2],,10.1038/srep34765,Double anions
mp-390,TiO2,True,False,2.0586,-3.508055451944444,[3.25],,10.1038/srep34765,Double anions
mp-390,TiO2,True,False,2.0586,-3.508055451944444,[3.2],,10.1134/S0018143920020022,Double anions
mp-390,TiO2,True,False,2.0586,-3.508055451944444,[2.5],,10.1134/S002315841903008X,Double anions
mp-390,TiO2,True,False,2.0586,-3.508055451944444,[3.2],,10.1134/S1070427220070058,Double anions
mp-390,TiO2,True,False,2.0586,-3.508055451944444,[3.2],,10.1186/1556-276X-6-459,Double anions
mp-390,TiO2,True,False,2.0586,-3.508055451944444,[3.2],,10.1186/1556-276X-8-465,Double anions
mp-390,TiO2,True,False,2.0586,-3.508055451944444,[3.5],,10.1186/1556-276X-9-499,Double anions
mp-390,TiO2,True,False,2.0586,-3.508055451944444,[3.43],,10.1186/1556-276X-9-499,Double anions
mp-390,TiO2,True,False,2.0586,-3.508055451944444,[3.54],,10.1186/s11671-015-0844-0,Double anions
mp-390,TiO2,True,False,2.0586,-3.508055451944444,[2.78],,10.1186/s11671-016-1408-7,Double anions
mp-390,TiO2,True,False,2.0586,-3.508055451944444,[3.2],,10.1186/s11671-016-1787-9,Double anions
mp-390,TiO2,True,False,2.0586,-3.508055451944444,[3.0],,10.1186/s11671-016-1787-9,Double anions
mp-390,TiO2,True,False,2.0586,-3.508055451944444,[3.2],,10.1186/s11671-017-1834-1,Double anions
mp-390,TiO2,True,False,2.0586,-3.508055451944444,[3.2],,10.1186/s11671-017-2130-9,Double anions
mp-390,TiO2,True,False,2.0586,-3.508055451944444,[2.99],,10.1186/s11671-018-2465-x,Double anions
mp-390,TiO2,True,False,2.0586,-3.508055451944444,[3.2],,10.1186/s11671-018-2522-5,Double anions
mp-390,TiO2,True,False,2.0586,-3.508055451944444,[3.1],,10.1186/s11671-018-2545-y,Double anions
mp-390,TiO2,True,False,2.0586,-3.508055451944444,[3.2],,10.1186/s11671-018-2681-4,Double anions
mp-390,TiO2,True,False,2.0586,-3.508055451944444,[3.09],,10.1186/s11671-018-2681-4,Double anions
mp-390,TiO2,True,False,2.0586,-3.508055451944444,[3.14],,10.1186/s11671-019-2991-1,Double anions
mp-390,TiO2,True,False,2.0586,-3.508055451944444,[3.2],,10.1186/s11671-019-3052-5,Double anions
mp-390,TiO2,True,False,2.0586,-3.508055451944444,[3.2],,10.1186/s12302-019-0287-9,Double anions
mp-390,TiO2,True,False,2.0586,-3.508055451944444,[3.27],,10.1186/s12934-014-0090-7,Double anions
mp-390,TiO2,True,False,2.0586,-3.508055451944444,[3.24],,10.1186/s13065-017-0236-x,Double anions
mp-390,TiO2,True,False,2.0586,-3.508055451944444,[3.09],,10.1186/s40201-016-0242-2,Double anions
mp-390,TiO2,True,False,2.0586,-3.508055451944444,[3.2],,10.1186/s40201-016-0242-2,Double anions
mp-390,TiO2,True,False,2.0586,-3.508055451944444,[3.2],,10.1186/s40543-016-0109-2,Double anions
mp-390,TiO2,True,False,2.0586,-3.508055451944444,[3.12],,10.1186/s42834-019-0031-6,Double anions
mp-390,TiO2,True,False,2.0586,-3.508055451944444,[3.2],,10.1007/s00214-013-1352-x,Double anions
mp-390,TiO2,True,False,2.0586,-3.508055451944444,[3.2],,10.1007/s00216-019-02060-1,Double anions
mp-390,TiO2,True,False,2.0586,-3.508055451944444,[2.8],,10.1007/s00226-020-01161-w,Double anions
mp-390,TiO2,True,False,2.0586,-3.508055451944444,[3.4],,10.1007/s00253-013-4889-7,Double anions
mp-390,TiO2,True,False,2.0586,-3.508055451944444,[3.3],,10.1007/s00339-014-8536-7,Double anions
mp-390,TiO2,True,False,2.0586,-3.508055451944444,[3.28],,10.1007/s00339-014-8536-7,Double anions
mp-390,TiO2,True,False,2.0586,-3.508055451944444,[3.2],,10.1007/s00339-015-9055-x,Double anions
mp-390,TiO2,True,False,2.0586,-3.508055451944444,[2.91],,10.1007/s00339-015-9055-x,Double anions
mp-390,TiO2,True,False,2.0586,-3.508055451944444,[3.2],,10.1007/s00339-015-9114-3,Double anions
mp-390,TiO2,True,False,2.0586,-3.508055451944444,[2.97],,10.1007/s00339-015-9114-3,Double anions
mp-390,TiO2,True,False,2.0586,-3.508055451944444,[3.23],,10.1007/s00339-015-9114-3,Double anions
mp-390,TiO2,True,False,2.0586,-3.508055451944444,[3.2],,10.1007/s00339-016-0145-1,Double anions
mp-390,TiO2,True,False,2.0586,-3.508055451944444,[3.2],,10.1007/s00339-016-0231-4,Double anions
mp-390,TiO2,True,False,2.0586,-3.508055451944444,[3.2],,10.1007/s00339-016-0522-9,Double anions
mp-390,TiO2,True,False,2.0586,-3.508055451944444,[3.05],,10.1007/s00339-016-0552-3,Double anions
mp-390,TiO2,True,False,2.0586,-3.508055451944444,[2.97],,10.1007/s00339-017-0824-6,Double anions
mp-390,TiO2,True,False,2.0586,-3.508055451944444,[3.2],,10.1007/s00339-017-1018-y,Double anions
mp-390,TiO2,True,False,2.0586,-3.508055451944444,[3.2],,10.1007/s00339-018-1700-8,Double anions
mp-390,TiO2,True,False,2.0586,-3.508055451944444,[3.13],,10.1007/s00339-018-1728-9,Double anions
mp-390,TiO2,True,False,2.0586,-3.508055451944444,[3.1],,10.1007/s00542-015-2514-7,Double anions
mp-390,TiO2,True,False,2.0586,-3.508055451944444,[3.2],,10.1007/s00604-015-1519-3,Double anions
mp-390,TiO2,True,False,2.0586,-3.508055451944444,[3.2],,10.1007/s00604-017-2554-z,Double anions
mp-390,TiO2,True,False,2.0586,-3.508055451944444,[3.2],,10.1007/s00604-019-3929-0,Double anions
mp-390,TiO2,True,False,2.0586,-3.508055451944444,[3.2],,10.1007/s00706-017-1941-9,Double anions
mp-390,TiO2,True,False,2.0586,-3.508055451944444,[3.2],,10.1007/s00706-017-2046-1,Double anions
mp-390,TiO2,True,False,2.0586,-3.508055451944444,[3.2],,10.1007/s00723-017-0870-4,Double anions
mp-390,TiO2,True,False,2.0586,-3.508055451944444,[3.29],,10.1007/s10008-008-0734-9,Double anions
mp-390,TiO2,True,False,2.0586,-3.508055451944444,[3.2],,10.1007/s10008-013-2046-y,Double anions
mp-390,TiO2,True,False,2.0586,-3.508055451944444,[3.2],,10.1007/s10008-013-2099-y,Double anions
mp-390,TiO2,True,False,2.0586,-3.508055451944444,[3.2],,10.1007/s10008-016-3385-2,Double anions
mp-390,TiO2,True,False,2.0586,-3.508055451944444,[2.5],,10.1007/s10008-016-3385-2,Double anions
mp-390,TiO2,True,False,2.0586,-3.508055451944444,[3.2],,10.1007/s10008-016-3478-y,Double anions
mp-390,TiO2,True,False,2.0586,-3.508055451944444,[3.63],,10.1007/s10008-017-3522-6,Double anions
mp-390,TiO2,True,False,2.0586,-3.508055451944444,[3.02],,10.1007/s10008-018-3888-0,Double anions
mp-390,TiO2,True,False,2.0586,-3.508055451944444,[3.35],350,10.1007/s10008-018-3888-0,Double anions
mp-390,TiO2,True,False,2.0586,-3.508055451944444,[3.07],350,10.1007/s10008-018-3888-0,Double anions
mp-390,TiO2,True,False,2.0586,-3.508055451944444,[3.2],,10.1007/s10008-019-04270-0,Double anions
mp-390,TiO2,True,False,2.0586,-3.508055451944444,[3.02],,10.1007/s10008-019-04452-w,Double anions
mp-390,TiO2,True,False,2.0586,-3.508055451944444,[3.2],,10.1007/s10008-019-04452-w,Double anions
mp-390,TiO2,True,False,2.0586,-3.508055451944444,[3.15],,10.1007/s10311-008-0172-z,Double anions
mp-390,TiO2,True,False,2.0586,-3.508055451944444,[3.2],,10.1007/s10311-018-00827-z,Double anions
mp-390,TiO2,True,False,2.0586,-3.508055451944444,[3.2],,10.1007/s10562-005-9192-5,Double anions
mp-390,TiO2,True,False,2.0586,-3.508055451944444,[3.2],,10.1007/s10562-007-9224-4,Double anions
mp-390,TiO2,True,False,2.0586,-3.508055451944444,[3.23],,10.1007/s10562-008-9433-5,Double anions
mp-390,TiO2,True,False,2.0586,-3.508055451944444,[3.39],,10.1007/s10562-009-0231-5,Double anions
mp-390,TiO2,True,False,2.0586,-3.508055451944444,[3.2],,10.1007/s10562-010-0262-y,Double anions
mp-390,TiO2,True,False,2.0586,-3.508055451944444,[3.2],,10.1007/s10562-012-0924-z,Double anions
mp-390,TiO2,True,False,2.0586,-3.508055451944444,[3.2],,10.1007/s10562-017-2067-8,Double anions
mp-390,TiO2,True,False,2.0586,-3.508055451944444,[3.2],,10.1007/s10562-017-2201-7,Double anions
mp-390,TiO2,True,False,2.0586,-3.508055451944444,[3.2],,10.1007/s10562-018-2489-y,Double anions
mp-390,TiO2,True,False,2.0586,-3.508055451944444,[3.15],,10.1007/s10562-019-02813-8,Double anions
mp-390,TiO2,True,False,2.0586,-3.508055451944444,[3.2],,10.1007/s10562-019-02813-8,Double anions
mp-390,TiO2,True,False,2.0586,-3.508055451944444,[2.8],,10.1007/s10562-019-02941-1,Double anions
mp-390,TiO2,True,False,2.0586,-3.508055451944444,[3.2],,10.1007/s10563-016-9217-7,Double anions
mp-390,TiO2,True,False,2.0586,-3.508055451944444,[3.31],,10.1007/s10570-013-9906-6,Double anions
mp-390,TiO2,True,False,2.0586,-3.508055451944444,[3.2],,10.1007/s10570-014-0385-1,Double anions
mp-390,TiO2,True,False,2.0586,-3.508055451944444,[3.2],,10.1007/s10570-017-1628-8,Double anions
mp-390,TiO2,True,False,2.0586,-3.508055451944444,[3.2],,10.1007/s10765-016-2063-z,Double anions
mp-390,TiO2,True,False,2.0586,-3.508055451944444,[3.2],,10.1007/s10800-018-1198-y,Double anions
mp-390,TiO2,True,False,2.0586,-3.508055451944444,[3.0],,10.1007/s10832-007-9227-y,Double anions
mp-390,TiO2,True,False,2.0586,-3.508055451944444,[3.56],500,10.1007/s10853-006-0553-2,Double anions
mp-390,TiO2,True,False,2.0586,-3.508055451944444,[3.2],,10.1007/s10853-006-1286-y,Double anions
mp-390,TiO2,True,False,2.0586,-3.508055451944444,[3.3],,10.1007/s10853-009-3613-6,Double anions