mpids,formula,is_stable,theoretical,band_gap,formation_energy_per_atom,Value,Temperature_raw_value,DOI,compound_type
mp-555483,SiO2,False,True,4.721699999999999,-3.259284434166667,[3.1],,10.1007/s10904-019-01074-7,Double anions
mp-555483,SiO2,False,True,4.721699999999999,-3.259284434166667,[0.157],,10.1007/s13202-020-00940-2,Double anions
mp-555483,SiO2,False,True,4.721699999999999,-3.259284434166667,[3.8],,10.1007/s40195-015-0328-3,Double anions
mp-555483,SiO2,False,True,4.721699999999999,-3.259284434166667,[9.0],,10.1007/s42452-019-1891-4,Double anions
mp-555483,SiO2,False,True,4.721699999999999,-3.259284434166667,[9.0],,10.1038/ncomms8944,Double anions
mp-555483,SiO2,False,True,4.721699999999999,-3.259284434166667,[7.8],,10.1038/s41598-019-50630-1,Double anions
mp-555483,SiO2,False,True,4.721699999999999,-3.259284434166667,[5.57],,10.1038/s41598-019-54835-2,Double anions
mp-555483,SiO2,False,True,4.721699999999999,-3.259284434166667,[0.2],,10.1038/s41699-020-00162-4,Double anions
mp-555483,SiO2,False,True,4.721699999999999,-3.259284434166667,[9.2],,10.1007/s00339-013-7713-4,Double anions
mp-555483,SiO2,False,True,4.721699999999999,-3.259284434166667,[8.0],,10.1007/s00339-016-0571-0,Double anions
mp-555483,SiO2,False,True,4.721699999999999,-3.259284434166667,[1.0907],,10.1007/s11837-016-2207-4,Double anions
mp-555483,SiO2,False,True,4.721699999999999,-3.259284434166667,[8.9],,10.1038/s41467-019-10325-7,Double anions
mp-555483,SiO2,False,True,4.721699999999999,-3.259284434166667,[9.0],,10.1038/s41598-020-73880-w,Double anions
mp-555483,SiO2,False,True,4.721699999999999,-3.259284434166667,[9.0],,10.1007/s00339-019-2547-3,Double anions
mp-555483,SiO2,False,True,4.721699999999999,-3.259284434166667,[3.06],,10.1007/s10854-015-4013-0,Double anions
mp-555483,SiO2,False,True,4.721699999999999,-3.259284434166667,[3.88],,10.1007/s10854-018-8598-y,Double anions
mp-555483,SiO2,False,True,4.721699999999999,-3.259284434166667,[2.23],,10.1007/s10856-016-5791-5,Double anions
mp-555483,SiO2,False,True,4.721699999999999,-3.259284434166667,[8.4],900,10.1007/s11671-010-9532-2,Double anions
mp-555483,SiO2,False,True,4.721699999999999,-3.259284434166667,[5.4],,10.1038/s41598-017-09998-1,Double anions
mp-555483,SiO2,False,True,4.721699999999999,-3.259284434166667,[5.7],,10.1007/s00542-019-04386-3,Double anions
mp-555483,SiO2,False,True,4.721699999999999,-3.259284434166667,[2.78],,10.1007/s10854-019-00763-w,Double anions
mp-555483,SiO2,False,True,4.721699999999999,-3.259284434166667,[8.0],,10.1007/s10854-020-04625-8,Double anions
mp-555483,SiO2,False,True,4.721699999999999,-3.259284434166667,[5.5],,10.1007/s10971-011-2556-y,Double anions
mp-555483,SiO2,False,True,4.721699999999999,-3.259284434166667,[6.3],,10.1038/s41598-017-06793-w,Double anions
mp-555483,SiO2,False,True,4.721699999999999,-3.259284434166667,[3.17],,10.1134/S1063782618110155,Double anions
mp-555483,SiO2,False,True,4.721699999999999,-3.259284434166667,[1.2],,10.1186/s11671-016-1805-y,Double anions
mp-555483,SiO2,False,True,4.721699999999999,-3.259284434166667,[7.8],,10.1016/S0925-8388(99)00422-3,Double anions
mp-555483,SiO2,False,True,4.721699999999999,-3.259284434166667,[8.0],,10.1021/jacs.5b03986,Double anions
mp-555483,SiO2,False,True,4.721699999999999,-3.259284434166667,[8.4],,10.1021/jacs.5b03986,Double anions
mp-1194282,K2Ti4O9,False,False,3.0211,-3.258138655522222,[3.54],,10.1016/j.cej.2012.07.075,Double anions
mp-1194282,K2Ti4O9,False,False,3.0211,-3.258138655522222,[3.1],,10.1016/j.jece.2016.07.008,Double anions
mp-1194282,K2Ti4O9,False,False,3.0211,-3.258138655522222,[3.4],,10.1039/c7se00589j,Double anions
mp-1194282,K2Ti4O9,False,False,3.0211,-3.258138655522222,[3.37],,10.1039/c7se00589j,Double anions
mp-556440,CaZr4(PO4)6,True,False,4.172099999999999,-3.250465469367347,[4.3],,10.1016/j.optmat.2015.05.020,Oxides
mp-556440,CaZr4(PO4)6,True,False,4.172099999999999,-3.250465469367347,[5.01],,10.1016/j.optmat.2015.05.020,Oxides
mp-7020,LiYO2,True,False,4.3897,-3.247456247708332,[5.23],,10.1016/j.physb.2017.06.055,Double anions
mp-7020,LiYO2,True,False,4.3897,-3.247456247708332,[4.18],,10.1016/j.physb.2017.06.055,Double anions
mp-7020,LiYO2,True,False,4.3897,-3.247456247708332,[1.02],,10.1016/j.physb.2017.06.055,Double anions
mp-17481,Mg4Ta2O9,True,False,4.2018,-3.240302830644448,[2.58],,10.1038/s41598-019-43915-y,Double anions
mp-17481,Mg4Ta2O9,True,False,4.2018,-3.240302830644448,[3.02],,10.1038/s41598-019-43915-y,Double anions
mp-7765,Ba3SiO5,False,False,3.242199999999999,-3.238230593333332,[3.04],,10.1039/c9cp05576b,Chalcogenides
mp-4591,SrNb2O6,True,False,2.9977,-3.237719354444443,[3.2],,10.1016/j.optmat.2017.02.002,Double anions
mp-4591,SrNb2O6,True,False,2.9977,-3.237719354444443,[3.94],,10.1016/j.optmat.2017.02.002,Double anions
mp-4591,SrNb2O6,True,False,2.9977,-3.237719354444443,[4.18],,10.1039/c9cy01080g,Double anions
mp-17101,CaNb2O6,True,False,3.6052,-3.237535069722227,[3.94],,10.1016/j.cej.2020.125251,Double anions
mp-549737,Ba2Ca(BO3)2,True,False,4.080500000000001,-3.224687858030303,[4.52],,10.1039/c7cp02740k,Double anions
mp-549737,Ba2Ca(BO3)2,True,False,4.080500000000001,-3.224687858030303,[7.61],,10.1039/c9ra00381a,Double anions
mp-19162,LaVO4,True,False,2.8563,-3.224557474166666,[2.17],,10.1016/j.cej.2018.09.098,Oxides
mp-19162,LaVO4,True,False,2.8563,-3.224557474166666,[2.06],,10.1016/j.cej.2019.122380,Oxides
mp-19162,LaVO4,True,False,2.8563,-3.224557474166666,[2.8],,10.1016/j.jssc.2009.04.032,Oxides
mp-19162,LaVO4,True,False,2.8563,-3.224557474166666,[3.5],,10.1016/j.jssc.2009.04.032,Oxides
mp-19162,LaVO4,True,False,2.8563,-3.224557474166666,[2.8],,10.1039/c3nr05871a,Oxides
mp-19162,LaVO4,True,False,2.8563,-3.224557474166666,[2.1],,10.1039/d0ma00047g,Oxides
mp-19162,LaVO4,True,False,2.8563,-3.224557474166666,[3.5],,10.1039/d0ma00047g,Oxides
mp-19162,LaVO4,True,False,2.8563,-3.224557474166666,[2.53],,10.1039/c8qi00864g,Oxides
mp-19162,LaVO4,True,False,2.8563,-3.224557474166666,[2.58],,10.1007/s10876-008-0229-y,Oxides
mp-3470,MgSiO3,False,False,4.7797,-3.223359357250002,[6.6],,10.1016/j.tsf.2011.10.133,Chalcogenides
mp-19381,DyCrO3,True,False,2.4922,-3.220740385333334,[2.8],,10.1039/c4ra11022f,Oxides
mp-18960,ErVO4,True,False,2.9661,-3.212660742500001,[3.41],,10.1007/s10854-017-8337-9,Oxides
mp-721988,NaAlSi3O8,True,False,4.8862000000000005,-3.21218744587533,[7.7],,10.1016/j.jlumin.2010.03.002,Chalcogenides
mp-18784,DyVO4,True,False,2.9764,-3.209243283611112,[2.13],,10.1016/j.cej.2011.02.051,Oxides
mp-18784,DyVO4,True,False,2.9764,-3.209243283611112,[2.3],,10.1039/c5ra22272a,Oxides
mp-685194,Li4Ti5O12,False,True,2.7202,-3.203121053333332,[2.0],,10.1039/c2ee22734g,Double anions
mp-685194,Li4Ti5O12,False,True,2.7202,-3.203121053333332,[2.98],,10.1039/d0ra00818d,Double anions
mp-685194,Li4Ti5O12,False,True,2.7202,-3.203121053333332,[2.3],,10.1039/c5ta02784e,Double anions
mp-685194,Li4Ti5O12,False,True,2.7202,-3.203121053333332,[2.0],,10.1039/c3cp54399d,Double anions
mp-1195471,K2Ta4O11,True,False,3.3655,-3.200980261990259,[4.15],,10.1039/c6cp02868c,Double anions
mp-1195471,K2Ta4O11,True,False,3.3655,-3.200980261990259,[4.13],,10.1039/c6cp02868c,Double anions
mp-19281,LaCrO3,True,False,2.3706,-3.1966233445,[0.43],,10.1039/c7dt01267e,Oxides
mp-19281,LaCrO3,True,False,2.3706,-3.1966233445,[2.23],,10.1007/s00339-018-2139-7,Oxides
mp-18725,YCrO3,True,False,2.4831,-3.191012650500001,[3.72],,10.1016/j.physb.2018.07.026,Oxides
mp-18725,YCrO3,True,False,2.4831,-3.191012650500001,[1.43],,10.1007/s10948-016-3716-7,Oxides
mp-18725,YCrO3,True,False,2.4831,-3.191012650500001,[1.86],,10.1007/s10948-018-4979-y,Oxides
mp-19323,SmVO4,True,False,3.0241,-3.189556127500001,[2.28],,10.1039/c4nr03008g,Chalcogenides
mp-559489,K2ZrSi2O7,True,False,4.524699999999999,-3.186144017249999,[4.95],,10.1039/c6tc01449f,Double anions
mp-13541,Sr2Mg(BO3)2,True,False,4.579700000000001,-3.184874278484848,[7.2],,10.1016/j.jssc.2017.12.004,Double anions
mp-13541,Sr2Mg(BO3)2,True,False,4.579700000000001,-3.184874278484848,[4.66],,10.1016/j.jssc.2017.12.004,Double anions
mp-3285,Na2Ta4O11,True,False,3.4629,-3.184666606887761,[3.3],,10.1039/c5ra24925b,Double anions
mp-19133,YVO4,True,False,2.976,-3.184120813333332,[3.8],,10.1016/j.jece.2018.04.011,Oxides
mp-19133,YVO4,True,False,2.976,-3.184120813333332,[3.78],,10.1016/j.optmat.2019.01.071,Oxides
mp-19133,YVO4,True,False,2.976,-3.184120813333332,[3.8],,10.1016/j.physb.2016.10.007,Oxides
mp-19133,YVO4,True,False,2.976,-3.184120813333332,[1.0],,10.1016/j.jssc.2009.04.032,Oxides
mp-19133,YVO4,True,False,2.976,-3.184120813333332,[3.38],,10.1039/c3ra43592j,Oxides
mp-19133,YVO4,True,False,2.976,-3.184120813333332,[3.5],,10.1039/c3ra43592j,Oxides
mp-19133,YVO4,True,False,2.976,-3.184120813333332,[3.4],,10.1039/c4ra14291h,Oxides
mp-19133,YVO4,True,False,2.976,-3.184120813333332,[3.2],,10.1039/c9cc03995c,Oxides
mp-19133,YVO4,True,False,2.976,-3.184120813333332,[3.2],,10.1039/c2dt31435e,Oxides
mp-19133,YVO4,True,False,2.976,-3.184120813333332,[3.75],,10.1039/c5ra18982a,Oxides
mp-19133,YVO4,True,False,2.976,-3.184120813333332,[3.57],,10.1039/c5ra18982a,Oxides
mp-19133,YVO4,True,False,2.976,-3.184120813333332,[3.7],,10.1039/c2ce06380h,Oxides
mp-19133,YVO4,True,False,2.976,-3.184120813333332,[3.6],,10.1007/s12648-015-0712-x,Oxides
mp-19133,YVO4,True,False,2.976,-3.184120813333332,[3.6],~1810,10.1007/s12648-015-0712-x,Oxides
mp-19133,YVO4,True,False,2.976,-3.184120813333332,[3.69],,10.1007/s12648-015-0712-x,Oxides
mp-19133,YVO4,True,False,2.976,-3.184120813333332,[3.7],,10.1007/s13762-017-1401-4,Oxides
mp-19133,YVO4,True,False,2.976,-3.184120813333332,[3.28],,10.1007/s13762-017-1401-4,Oxides
mp-1191240,Sr2ZnSi2O7,True,False,3.8987,-3.181093632083333,[4.24],,10.1039/c6cp07391c,Double anions
mp-1191111,SrTi(PO4)2,True,False,2.6126,-3.180023392301587,[3.6],,10.1039/b822336j,Chalcogenides
mp-1191111,SrTi(PO4)2,True,False,2.6126,-3.180023392301587,[3.28],,10.1039/b822336j,Chalcogenides
mp-22024,GdVO4,True,False,2.9685,-3.1765945025,[2.7],,10.1016/j.cej.2012.11.074,Oxides
mp-22024,GdVO4,True,False,2.9685,-3.1765945025,[2.36],,10.1016/j.cej.2012.11.074,Oxides
mp-22024,GdVO4,True,False,2.9685,-3.1765945025,[3.63],,10.1016/j.optmat.2018.05.033,Oxides
mp-22024,GdVO4,True,False,2.9685,-3.1765945025,[3.61],,10.1016/j.tsf.2017.07.069,Oxides
mp-22024,GdVO4,True,False,2.9685,-3.1765945025,[3.38],,10.1039/c3ra43592j,Oxides
mp-22024,GdVO4,True,False,2.9685,-3.1765945025,[3.57],,10.1039/c5ra18982a,Oxides
mp-22024,GdVO4,True,False,2.9685,-3.1765945025,[2.36],,10.1039/c8dt04225j,Oxides
mp-22024,GdVO4,True,False,2.9685,-3.1765945025,[3.1],,10.1039/c8dt04225j,Oxides
mp-22024,GdVO4,True,False,2.9685,-3.1765945025,[3.07],,10.1039/c8tc00841h,Oxides
mp-22024,GdVO4,True,False,2.9685,-3.1765945025,[3.76],,10.1007/s10854-016-4990-7,Oxides
mp-22024,GdVO4,True,False,2.9685,-3.1765945025,[2.2],,10.1007/s10854-020-03864-z,Oxides
mp-22024,GdVO4,True,False,2.9685,-3.1765945025,[4.13],,10.1186/s11671-018-2514-5,Oxides
mp-22024,GdVO4,True,False,2.9685,-3.1765945025,[3.57],,10.1007/s00339-019-2703-9,Oxides
mp-18331,GdCrO3,True,False,2.6309,-3.173304159499999,[3.2],,10.1039/c5ra11682a,Oxides
mp-10499,LiZr2(PO4)3,True,False,4.253299999999999,-3.170948748458995,[3.5],,10.1039/c7ta08968f,Double anions
mp-2724101,Li2HfO3,True,True,4.0573,-3.170408328611111,[0.5],,10.1016/j.optmat.2011.12.024,Double anions
mp-759307,TiNb2O7,False,True,2.1357,-3.169513764833335,[3.2],,10.1039/c6ta11061d,Double anions
mp-759307,TiNb2O7,False,True,2.1357,-3.169513764833335,[3.1],,10.1039/c6ta11061d,Double anions
mp-759307,TiNb2O7,False,True,2.1357,-3.169513764833335,[2.92],,10.1039/c0ee00808g,Double anions
mp-759307,TiNb2O7,False,True,2.1357,-3.169513764833335,[2.9],,10.1039/c6nr01340f,Double anions
mp-759307,TiNb2O7,False,True,2.1357,-3.169513764833335,[2.7],,10.1039/c6nr01340f,Double anions
mp-759307,TiNb2O7,False,True,2.1357,-3.169513764833335,[2.03],,10.1039/c8ta12497c,Double anions
mp-752467,NbO2F,True,True,2.2079,-3.168193328125,[3.1],,10.1016/j.tsf.2006.12.125,Double anions
mp-3488,Na2Ti3O7,True,False,2.9953000000000003,-3.160181039813217,[3.7],,10.1016/j.cej.2019.122209,Double anions
mp-3488,Na2Ti3O7,True,False,2.9953000000000003,-3.160181039813217,[3.51],,10.1039/c3ce27092k,Double anions
mp-3488,Na2Ti3O7,True,False,2.9953000000000003,-3.160181039813217,[3.7],,10.1039/c7ta08104a,Double anions
mp-3488,Na2Ti3O7,True,False,2.9953000000000003,-3.160181039813217,[2.99],,10.1038/s41524-018-0070-2,Double anions
mp-3488,Na2Ti3O7,True,False,2.9953000000000003,-3.160181039813217,[3.51],,10.1016/j.ssc.2017.03.001,Double anions
mp-3488,Na2Ti3O7,True,False,2.9953000000000003,-3.160181039813217,[3.25],,10.1016/j.ssc.2017.03.001,Double anions
mp-557195,KCa2Nb3O10,False,False,2.1761,-3.153392547484374,[3.44],,10.1039/c7cs00290d,Double anions
mp-557195,KCa2Nb3O10,False,False,2.1761,-3.153392547484374,[3.35],,10.1039/b821435b,Double anions
mp-557195,KCa2Nb3O10,False,False,2.1761,-3.153392547484374,[3.6],,10.1039/c8na00240a,Double anions
mp-1189528,Ca2ScSbO6,True,False,3.6317999999999993,-3.1275018395,[3.68],,",180 p.",Double anions
mp-1189528,Ca2ScSbO6,True,False,3.6317999999999993,-3.1275018395,[3.61],,",180 p.",Double anions
mp-9259,Ba2Mg(BO3)2,True,False,4.532399999999999,-3.127045616666666,[5.95],,10.1039/c7cp02740k,Double anions
mp-1105399,La2MoO5,False,False,0.5206000000000001,-3.126056116250002,[0.55],,10.1021/ic501327u,Double anions
mp-1105399,La2MoO5,False,False,0.5206000000000001,-3.126056116250002,[0.49],,10.1021/ic501327u,Double anions
mp-1105399,La2MoO5,False,False,0.5206000000000001,-3.126056116250002,[1.0],,10.1021/ic501327u,Double anions
mp-3666,LiTaO3,True,False,3.7003,-3.125358770133336,[3.67],,10.1016/j.cej.2019.06.015,Oxides
mp-3666,LiTaO3,True,False,3.7003,-3.125358770133336,[4.91],,10.1016/j.cej.2019.06.015,Oxides
mp-3666,LiTaO3,True,False,3.7003,-3.125358770133336,[3.816],,10.1016/j.cej.2020.124807,Oxides
mp-3666,LiTaO3,True,False,3.7003,-3.125358770133336,[4.7],,10.1016/j.cej.2020.124807,Oxides
mp-3666,LiTaO3,True,False,3.7003,-3.125358770133336,[3.08],,10.1016/j.physb.2013.05.017,Oxides
mp-3666,LiTaO3,True,False,3.7003,-3.125358770133336,[4.8],,10.1039/c4nr03019b,Oxides
mp-3666,LiTaO3,True,False,3.7003,-3.125358770133336,[4.79],300,10.1039/c5ra03209a,Oxides
mp-3666,LiTaO3,True,False,3.7003,-3.125358770133336,[4.79],,10.1039/c5ra03209a,Oxides
mp-3666,LiTaO3,True,False,3.7003,-3.125358770133336,[4.0],,10.1039/c9se00355j,Oxides
mp-3666,LiTaO3,True,False,3.7003,-3.125358770133336,[4.7],,10.1039/c8tb02777c,Oxides
mp-3666,LiTaO3,True,False,3.7003,-3.125358770133336,[4.0],,10.1039/c4nr01490a,Oxides
mp-3666,LiTaO3,True,False,3.7003,-3.125358770133336,[4.1],,10.1016/S0925-8388(99)00422-3,Oxides
mp-942733,Li7La3Zr2O12,False,False,4.168800000000001,-3.124116936388889,[5.79],,10.1038/s41598-018-23852-y,Double anions
mp-1105822,PrCrO3,True,False,2.0419,-3.121656220833332,[3.2],,10.1016/j.optmat.2020.109742,Oxides
mp-1105822,PrCrO3,True,False,2.0419,-3.121656220833332,[3.2],,10.1007/s10854-020-04189-7,Oxides
mp-6565,Li3Sc2(PO4)3,True,False,4.7568,-3.121208874571429,[4.681],,10.1039/c8cp05942j,Double anions
mp-1106218,Sr2ScSbO6,True,False,3.5074,-3.113772652999999,[3.51],,",180 p.",Double anions
mp-1106218,Sr2ScSbO6,True,False,3.5074,-3.113772652999999,[3.41],,",180 p.",Double anions
mp-1106218,Sr2ScSbO6,True,False,3.5074,-3.113772652999999,[3.57],,",180 p.",Double anions
mp-1106218,Sr2ScSbO6,True,False,3.5074,-3.113772652999999,[3.47],,",180 p.",Double anions
mp-1106218,Sr2ScSbO6,True,False,3.5074,-3.113772652999999,[3.4],,",180 p.",Double anions
mp-1218758,Sr2LaGaO5,False,True,3.596399999999999,-3.110187525277778,[4.6],,10.1039/c9tc04938j,Double anions
mp-6332,Li2TiSiO5,True,False,3.215299999999999,-3.102775733333333,[5.47],,10.1039/d0nj00398k,Double anions
mp-17953,MgNb2O6,True,False,3.456699999999999,-3.098160845555563,[2.19],800,10.1007/s40033-015-0094-4,Double anions
mp-5837,LaGaO3,False,False,3.3483,-3.0979300295,[3.59],,10.1039/c6ra21693e,Oxides
mp-5837,LaGaO3,False,False,3.3483,-3.0979300295,[2.1],,10.1039/c6ra21693e,Oxides
mp-5837,LaGaO3,False,False,3.3483,-3.0979300295,[3.54],,10.1016/j.jallcom.2017.03.009,Oxides
mp-5837,LaGaO3,False,False,3.3483,-3.0979300295,[3.33],,10.1016/j.jallcom.2017.03.009,Oxides
mp-5837,LaGaO3,False,False,3.3483,-3.0979300295,[4.08],,10.1016/j.jallcom.2017.03.009,Oxides
mp-5837,LaGaO3,False,False,3.3483,-3.0979300295,[4.54],,10.1016/j.jallcom.2017.03.009,Oxides
mp-5837,LaGaO3,False,False,3.3483,-3.0979300295,[5.23],,10.1016/j.jallcom.2017.03.009,Oxides
mp-5837,LaGaO3,False,False,3.3483,-3.0979300295,[4.48],,10.1016/j.jallcom.2017.03.009,Oxides
mp-5837,LaGaO3,False,False,3.3483,-3.0979300295,[4.4],,10.1016/j.jallcom.2017.03.009,Oxides
mp-983597,Sm3SbO3,False,False,0.5489,-3.094074591428572,[0.0057],,10.1016/j.jssc.2009.04.023,Chalcogenides
mp-557543,K3LuSi2O7,True,False,3.6132,-3.092836822570512,[5.0],,10.1038/s41467-019-13293-0,Double anions
mp-559474,La5Ti2CuS5O7,True,False,1.2107,-3.078372617208334,[1.9],,10.1039/c4cc10297e,Double anions
mp-559474,La5Ti2CuS5O7,True,False,1.2107,-3.078372617208334,[1.9],,10.1039/c5sc01344e,Double anions
mp-559474,La5Ti2CuS5O7,True,False,1.2107,-3.078372617208334,[1.9],,10.1039/c6nr06541d,Double anions
mp-559474,La5Ti2CuS5O7,True,False,1.2107,-3.078372617208334,[2.0],,10.1039/c7dt00867h,Double anions
mp-2472,SrO,True,False,3.2748,-3.075623527499999,[1.8],,10.1016/j.rinp.2013.03.001,Chalcogenides
mp-2472,SrO,True,False,3.2748,-3.075623527499999,[6.14],,10.1016/j.rinp.2013.03.001,Chalcogenides
mp-2472,SrO,True,False,3.2748,-3.075623527499999,[4.2],,10.1016/j.tsf.2009.10.108,Chalcogenides
mp-2472,SrO,True,False,3.2748,-3.075623527499999,[6.0],,10.1016/j.tsf.2011.10.199,Chalcogenides
mp-2472,SrO,True,False,3.2748,-3.075623527499999,[5.5],,10.1016/j.commatsci.2016.04.021,Chalcogenides
mp-2472,SrO,True,False,3.2748,-3.075623527499999,[0.58],520,10.1016/j.jnoncrysol.2016.08.018,Chalcogenides
mp-2472,SrO,True,False,3.2748,-3.075623527499999,[3.34],,10.1039/c5cp03005f,Chalcogenides
mp-2472,SrO,True,False,3.2748,-3.075623527499999,[6.0],,10.1039/c2ee21463f,Chalcogenides
mp-2472,SrO,True,False,3.2748,-3.075623527499999,[3.4],,10.1039/c9cy00127a,Chalcogenides
mp-2472,SrO,True,False,3.2748,-3.075623527499999,[6.0],,10.1007/s00339-015-9220-2,Chalcogenides
mp-2472,SrO,True,False,3.2748,-3.075623527499999,[7.1],,10.1007/s00339-015-9220-2,Chalcogenides
mp-2472,SrO,True,False,3.2748,-3.075623527499999,[5.77],,10.1021/jacs.5b03986,Chalcogenides
mp-2472,SrO,True,False,3.2748,-3.075623527499999,[5.7],,10.1021/jacs.5b03986,Chalcogenides
mp-2472,SrO,True,False,3.2748,-3.075623527499999,[1.16],,10.1021/jacs.5b03986,Chalcogenides
mp-760188,Nb3O7F,False,True,2.3814,-3.0749570636363632,[3.22],,10.1039/c5ta02774h,Halides
mp-760188,Nb3O7F,False,True,2.3814,-3.0749570636363632,[1.83],,10.1039/c5ta02774h,Halides
mp-760188,Nb3O7F,False,True,2.3814,-3.0749570636363632,[3.1],,10.1039/c2cp44326k,Halides
mp-760188,Nb3O7F,False,True,2.3814,-3.0749570636363632,[1.59],,10.1039/c2cp44326k,Halides
mp-760188,Nb3O7F,False,True,2.3814,-3.0749570636363632,[3.12],,10.1039/c3ta11042g,Halides
mp-3614,KTaO3,True,False,2.0995,-3.071587857916669,[3.8],,10.1016/j.physb.2012.09.011,Oxides
mp-3614,KTaO3,True,False,2.0995,-3.071587857916669,[3.5],,10.1016/j.jssc.2007.12.007,Oxides
mp-2715259,Na3La2(PO4)3,False,True,4.4521,-3.065168122403325,[3.86],,10.1039/c8tc06119j,Double anions
mp-3858,NaTaO3,True,False,2.6172,-3.062992296242529,[4.0],,10.1039/c0jm03451g,Oxides
mp-3858,NaTaO3,True,False,2.6172,-3.062992296242529,[4.0],,10.1039/c1ee01259b,Oxides
mp-3858,NaTaO3,True,False,2.6172,-3.062992296242529,[3.56],,10.1039/c2ra21083e,Oxides
mp-3858,NaTaO3,True,False,2.6172,-3.062992296242529,[3.82],,10.1039/c3cp53437e,Oxides
mp-3858,NaTaO3,True,False,2.6172,-3.062992296242529,[3.18],,10.1039/c3cp53437e,Oxides
mp-3858,NaTaO3,True,False,2.6172,-3.062992296242529,[4.06],,10.1039/c3ta10257b,Oxides
mp-3858,NaTaO3,True,False,2.6172,-3.062992296242529,[2.67],,10.1039/c4cp01578a,Oxides