mpids,formula,is_stable,theoretical,band_gap,formation_energy_per_atom,Value,Temperature_raw_value,DOI,compound_type
mp-555794,NaMg2V3O10,True,False,2.8352999999999997,-2.5862577903987063,[3.22],,10.1039/c7dt04664b,Double anions
mp-3307,BaSO4,False,False,4.5086,-2.574819327083332,[6.0],,10.1039/d0ta02348e,Chalcogenides
mp-3307,BaSO4,False,False,4.5086,-2.574819327083332,[0.545],,10.1103/PhysRevB.60.2333,Chalcogenides
mp-560340,La2Pd2O5,True,False,1.179,-2.572202741111114,[1.342],,10.1007/s12034-020-02115-5,Double anions
mp-18968,Li2FeSiO4,True,False,3.123599999999999,-2.563266433645833,[5.5],,10.1039/c3ta13387g,Double anions
mp-18968,Li2FeSiO4,True,False,3.123599999999999,-2.563266433645833,[3.0],,10.1039/c0jm04216a,Double anions
mp-18968,Li2FeSiO4,True,False,3.123599999999999,-2.563266433645833,[2.9],,10.1039/d0cp02578j,Double anions
mp-18968,Li2FeSiO4,True,False,3.123599999999999,-2.563266433645833,[3.3],,10.1007/s11581-020-03510-y,Double anions
mp-1873,ZnF2,True,False,3.4592,-2.5630967333333343,[6.7],,10.1016/j.tsf.2013.02.071,Double anions
mp-18875,MgWO4,True,False,3.6767,-2.562331308333333,[2.82],900,10.1007/s10854-019-01960-3,Oxides
mp-18875,MgWO4,True,False,3.6767,-2.562331308333333,[2.82],,10.1007/s10854-019-01960-3,Oxides
mp-18875,MgWO4,True,False,3.6767,-2.562331308333333,[4.33],,10.1007/s10904-019-01435-2,Oxides
mp-18875,MgWO4,True,False,3.6767,-2.562331308333333,[3.39],,10.1007/s10853-016-0730-x,Oxides
mp-1020896,Rb4Ge3B6O17,True,False,3.855599999999999,-2.560774063166666,[5.42],,10.1021/ic102597y,Oxides
mp-1211274,KY(CO3)2,True,True,4.3035,-2.559192202725,[6.22],,10.1016/j.jallcom.2018.02.113,Oxides
mp-1211274,KY(CO3)2,True,True,4.3035,-2.559192202725,[4.577],,10.1016/j.jallcom.2018.02.113,Oxides
mp-4819,MgGeO3,False,False,2.5261,-2.554010083,[5.68],,10.1039/c7tc03151c,Oxides
mp-18783,Ca2FeMoO6,False,False,1.1193,-2.548062932999999,[1.84],,10.1007/s10948-019-5064-x,Double anions
mp-18783,Ca2FeMoO6,False,False,1.1193,-2.548062932999999,[3.0],,10.1007/s10948-019-5064-x,Double anions
mp-1222860,Li7Mn(BO3)3,False,True,3.5681000000000003,-2.539627533063218,[5.0],,10.1039/c5cp02711j,Oxides
mp-758562,LiFeSiO4,False,True,2.9822,-2.536767287619047,[2.9],,10.1039/d0cp02578j,Halides
mp-557089,Rb2Zn3(P2O7)2,True,False,4.1684,-2.535591127329192,[4.39],,10.1039/d0qi00689k,Double anions
mp-1178577,AlFeO3,False,True,2.1792,-2.534268328,[2.1],,10.1016/j.jallcom.2018.03.388,Halides
mp-1178577,AlFeO3,False,True,2.1792,-2.534268328,[2.68],,10.1016/j.jallcom.2018.03.388,Halides
mp-1178577,AlFeO3,False,True,2.1792,-2.534268328,[1.12],,10.1016/j.jallcom.2018.03.388,Halides
mp-1178577,AlFeO3,False,True,2.1792,-2.534268328,[2.66],,10.1016/j.jallcom.2018.03.388,Halides
mp-1178577,AlFeO3,False,True,2.1792,-2.534268328,[2.44],,10.1007/s10971-017-4325-z,Halides
mp-4704,Y3Fe5O12,False,False,1.9136,-2.52611848025,[2.6],,10.1038/ncomms12265,Double anions
mp-3744,NaNbO2,True,False,1.378099999999999,-2.522986689094827,[1.5],,10.1039/c5ee01745a,Double anions
mp-541404,VO2,True,False,0.7584000000000001,-2.522468176666668,[1.75],,10.1016/j.cej.2018.01.107,Double anions
mp-541404,VO2,True,False,0.7584000000000001,-2.522468176666668,[1.15],,10.1016/j.cej.2018.01.107,Double anions
mp-541404,VO2,True,False,0.7584000000000001,-2.522468176666668,[1.0],,10.1016/j.matpr.2015.09.013,Double anions
mp-541404,VO2,True,False,0.7584000000000001,-2.522468176666668,[0.6],,10.1016/j.physb.2009.09.083,Double anions
mp-541404,VO2,True,False,0.7584000000000001,-2.522468176666668,[0.6],,10.1016/j.tsf.2011.03.003,Double anions
mp-541404,VO2,True,False,0.7584000000000001,-2.522468176666668,[2.7],,10.1016/j.tsf.2012.03.026,Double anions
mp-541404,VO2,True,False,0.7584000000000001,-2.522468176666668,[0.7],68,10.1016/j.tsf.2013.10.039,Double anions
mp-541404,VO2,True,False,0.7584000000000001,-2.522468176666668,[0.7],,10.1016/j.tsf.2014.05.067,Double anions
mp-541404,VO2,True,False,0.7584000000000001,-2.522468176666668,[1.75],,10.1016/j.tsf.2015.11.007,Double anions
mp-541404,VO2,True,False,0.7584000000000001,-2.522468176666668,[0.7],,10.1016/j.tsf.2015.11.007,Double anions
mp-541404,VO2,True,False,0.7584000000000001,-2.522468176666668,[1.59],,10.1016/j.tsf.2020.137919,Double anions
mp-541404,VO2,True,False,0.7584000000000001,-2.522468176666668,[1.71],,10.1016/j.tsf.2020.138174,Double anions
mp-541404,VO2,True,False,0.7584000000000001,-2.522468176666668,[0.62],,10.1039/c3ce26672a,Double anions
mp-541404,VO2,True,False,0.7584000000000001,-2.522468176666668,[2.4],,10.1039/c3cp50638j,Double anions
mp-541404,VO2,True,False,0.7584000000000001,-2.522468176666668,[2.5],,10.1039/c3cp51359a,Double anions
mp-541404,VO2,True,False,0.7584000000000001,-2.522468176666668,[0.69],,10.1039/c3cp51359a,Double anions
mp-541404,VO2,True,False,0.7584000000000001,-2.522468176666668,[0.5],,10.1039/c3cp51359a,Double anions
mp-541404,VO2,True,False,0.7584000000000001,-2.522468176666668,[0.7],,10.1039/c4cp04623d,Double anions
mp-541404,VO2,True,False,0.7584000000000001,-2.522468176666668,[2.99],,10.1039/c5tc01062d,Double anions
mp-541404,VO2,True,False,0.7584000000000001,-2.522468176666668,[0.6],,10.1039/c7ra10865f,Double anions
mp-541404,VO2,True,False,0.7584000000000001,-2.522468176666668,[1.17],,10.1039/c8cp00318a,Double anions
mp-541404,VO2,True,False,0.7584000000000001,-2.522468176666668,[0.75],,10.1039/c9ra00189a,Double anions
mp-541404,VO2,True,False,0.7584000000000001,-2.522468176666668,[0.7],,10.1039/b316531k,Double anions
mp-541404,VO2,True,False,0.7584000000000001,-2.522468176666668,[1.82],,10.1039/c3cp52009a,Double anions
mp-541404,VO2,True,False,0.7584000000000001,-2.522468176666668,[0.59],,10.1039/c3cp52009a,Double anions
mp-541404,VO2,True,False,0.7584000000000001,-2.522468176666668,[2.1],,10.1039/c4nr06032f,Double anions
mp-541404,VO2,True,False,0.7584000000000001,-2.522468176666668,[2.7],,10.1039/c4nr06032f,Double anions
mp-541404,VO2,True,False,0.7584000000000001,-2.522468176666668,[1.59],,10.1039/c4ta02880e,Double anions
mp-541404,VO2,True,False,0.7584000000000001,-2.522468176666668,[1.82],,10.1039/c4ta02880e,Double anions
mp-541404,VO2,True,False,0.7584000000000001,-2.522468176666668,[1.86],,10.1039/c4ta02880e,Double anions
mp-541404,VO2,True,False,0.7584000000000001,-2.522468176666668,[0.6],,10.1039/c5cp07416a,Double anions
mp-541404,VO2,True,False,0.7584000000000001,-2.522468176666668,[0.05],,10.1039/c6ra24084d,Double anions
mp-541404,VO2,True,False,0.7584000000000001,-2.522468176666668,[0.65],,10.1039/c8ra03292k,Double anions
mp-541404,VO2,True,False,0.7584000000000001,-2.522468176666668,[0.6],,10.1039/c8ra03292k,Double anions
mp-541404,VO2,True,False,0.7584000000000001,-2.522468176666668,[0.72],,10.1039/d0ma00338g,Double anions
mp-541404,VO2,True,False,0.7584000000000001,-2.522468176666668,[0.7],,10.1039/c9ce01655d,Double anions
mp-541404,VO2,True,False,0.7584000000000001,-2.522468176666668,[2.5],,10.1007/s10948-019-05216-3,Double anions
mp-541404,VO2,True,False,0.7584000000000001,-2.522468176666668,[0.9],,10.1038/nmat4692,Double anions
mp-541404,VO2,True,False,0.7584000000000001,-2.522468176666668,[0.6],,10.1038/s41427-018-0061-2,Double anions
mp-541404,VO2,True,False,0.7584000000000001,-2.522468176666668,[0.7],,10.1038/s41467-020-19636-6,Double anions
mp-541404,VO2,True,False,0.7584000000000001,-2.522468176666668,[0.63],,10.1038/s41598-017-04660-2,Double anions
mp-541404,VO2,True,False,0.7584000000000001,-2.522468176666668,[0.6],300,10.1038/s41598-017-12950-y,Double anions
mp-541404,VO2,True,False,0.7584000000000001,-2.522468176666668,[1.0],,10.1007/s00339-019-2736-0,Double anions
mp-541404,VO2,True,False,0.7584000000000001,-2.522468176666668,[0.6],300,10.1007/s10853-013-7433-3,Double anions
mp-541404,VO2,True,False,0.7584000000000001,-2.522468176666668,[0.33],,10.1007/s12596-013-0151-z,Double anions
mp-541404,VO2,True,False,0.7584000000000001,-2.522468176666668,[0.05],55 to 67.3,10.1007/s12596-013-0151-z,Double anions
mp-541404,VO2,True,False,0.7584000000000001,-2.522468176666668,[0.7],,10.1007/s42864-020-00032-y,Double anions
mp-541404,VO2,True,False,0.7584000000000001,-2.522468176666668,[0.6],,10.1038/s41598-017-00359-6,Double anions
mp-541404,VO2,True,False,0.7584000000000001,-2.522468176666668,[0.3],,10.1134/S0031918X07090013,Double anions
mp-541404,VO2,True,False,0.7584000000000001,-2.522468176666668,[0.17],,10.1134/S1063782610120018,Double anions
mp-541404,VO2,True,False,0.7584000000000001,-2.522468176666668,[2.3],,10.1007/s00339-017-1363-x,Double anions
mp-541404,VO2,True,False,0.7584000000000001,-2.522468176666668,[1.1],,10.1007/s10854-020-03023-4,Double anions
mp-541404,VO2,True,False,0.7584000000000001,-2.522468176666668,[0.04],–196,10.1134/S1063784218060129,Double anions
mp-541404,VO2,True,False,0.7584000000000001,-2.522468176666668,[0.65],,10.1021/jacs.5b03986,Double anions
mp-541404,VO2,True,False,0.7584000000000001,-2.522468176666668,[0.66],,10.1021/jacs.5b03986,Double anions
mp-541404,VO2,True,False,0.7584000000000001,-2.522468176666668,[0.4],,10.1021/jacs.5b03986,Double anions
mp-541404,VO2,True,False,0.7584000000000001,-2.522468176666668,[0.12],,10.1021/jacs.5b03986,Double anions
mp-674333,Na3PO4,True,True,3.9187,-2.518010732972598,[2.2],,10.1016/j.mseb.2007.02.014,Oxides
mp-19131,LiMnBO3,False,False,2.563599999999999,-2.514293998405173,[3.05],,10.1007/s11581-017-2019-8,Oxides
mp-684504,Li3Bi2(PO4)3,False,True,4.0294,-2.512523591821428,[3.5],,10.1039/c7ta08968f,Double anions
mp-7475,La2S3,True,False,1.0358,-2.507728445187498,[2.7],,10.1039/c7ee02702h,Double anions
mp-7475,La2S3,True,False,1.0358,-2.507728445187498,[2.58],,10.1103/PhysRevB.60.2333,Double anions
mp-7475,La2S3,True,False,1.0358,-2.507728445187498,[2.6],,10.1103/PhysRevB.60.2333,Double anions
mp-7475,La2S3,True,False,1.0358,-2.507728445187498,[1.38],,10.1103/PhysRevB.60.2333,Double anions
mp-780654,V2O3,False,True,0.620899999999999,-2.503826392749999,[0.8],,10.1016/j.tsf.2020.138063,Double anions
mp-780654,V2O3,False,True,0.620899999999999,-2.503826392749999,[0.6],,10.1039/c4cp02788d,Double anions
mp-780654,V2O3,False,True,0.620899999999999,-2.503826392749999,[2.4],,10.1039/c4cp02788d,Double anions
mp-780654,V2O3,False,True,0.620899999999999,-2.503826392749999,[0.1],,10.1021/jacs.5b03986,Double anions
mp-19219,Li3VO4,True,False,4.0337,-2.502745246250001,[3.9],,10.1016/j.ssi.2008.09.010,Oxides
mp-1195000,CsZn2B3O7,True,False,3.5131,-2.501359942729885,[5.51],,10.1039/c7dt01677h,Double anions
mp-1195000,CsZn2B3O7,True,False,3.5131,-2.501359942729885,[5.69],,10.1021/ic5004337,Double anions
mp-561083,Na3Bi(PO4)2,True,False,4.2446,-2.50099527015526,[3.54],,10.1007/s10853-016-9982-8,Oxides
mp-558323,SrBi2B2O7,False,True,2.8040000000000003,-2.496932166805556,[2.57],,10.1039/c6ra26752a,Double anions
mp-542334,V5O9,False,False,0.5147,-2.496833639107143,[0.15000000000000002],,10.1021/jacs.5b03986,Oxides
mp-19001,SrMnO3,False,False,0.9027,-2.496220726086208,[2.1],,10.1016/j.physb.2010.05.056,Chalcogenides
mp-19001,SrMnO3,False,False,0.9027,-2.496220726086208,[0.3],,10.1007/s12648-020-01789-1,Chalcogenides
mp-560463,Li2B4O7,False,False,3.7518,-2.495315280448717,[8.0],,10.1016/j.optmat.2017.05.032,Double anions
mp-560463,Li2B4O7,False,False,3.7518,-2.495315280448717,[3.5],,10.1007/s12648-020-01782-8,Double anions
mp-8873,LiGeBO4,False,False,4.526400000000001,-2.494826821071428,[6.2],,10.1039/c8qi01377b,Oxides
mp-555597,V4O7,False,False,0.5857,-2.490850337272725,[0.8],,10.1021/jacs.5b03986,Oxides
mp-1983109,ErBiW2O9,False,True,2.543399999999999,-2.488767008461538,[3.26],,10.1039/c1dt10748h,Double anions
mp-19017,LiFePO4,True,False,3.922399999999999,-2.4798960147108837,[0.61],,10.1016/j.physb.2009.05.035,Halides
mp-19017,LiFePO4,True,False,3.922399999999999,-2.4798960147108837,[0.39],,10.1016/j.physb.2009.05.035,Halides
mp-19017,LiFePO4,True,False,3.922399999999999,-2.4798960147108837,[0.05],,10.1016/j.physb.2009.05.035,Halides
mp-19017,LiFePO4,True,False,3.922399999999999,-2.4798960147108837,[1.14],300,10.1039/c2ta01393b,Halides
mp-19017,LiFePO4,True,False,3.922399999999999,-2.4798960147108837,[6.1],,10.1039/c3ta13387g,Halides
mp-19017,LiFePO4,True,False,3.922399999999999,-2.4798960147108837,[6.34],,10.1039/c8ra09154d,Halides
mp-19017,LiFePO4,True,False,3.922399999999999,-2.4798960147108837,[0.5],,10.1039/c8ra09154d,Halides
mp-19017,LiFePO4,True,False,3.922399999999999,-2.4798960147108837,[6.0],,10.1039/c8ra09154d,Halides
mp-19017,LiFePO4,True,False,3.922399999999999,-2.4798960147108837,[3.8],,10.1039/c8ra09154d,Halides
mp-19017,LiFePO4,True,False,3.922399999999999,-2.4798960147108837,[1.31],,10.1039/c8ra09154d,Halides
mp-19017,LiFePO4,True,False,3.922399999999999,-2.4798960147108837,[4.0],,10.1039/c8ra09154d,Halides
mp-19017,LiFePO4,True,False,3.922399999999999,-2.4798960147108837,[4.8],,10.1039/c8ra09154d,Halides
mp-19017,LiFePO4,True,False,3.922399999999999,-2.4798960147108837,[6.2],,10.1039/c8ra09154d,Halides
mp-19017,LiFePO4,True,False,3.922399999999999,-2.4798960147108837,[0.6],,10.1039/c4ra11366g,Halides
mp-19017,LiFePO4,True,False,3.922399999999999,-2.4798960147108837,[4.0],,10.1039/c5cp04739k,Halides
mp-19017,LiFePO4,True,False,3.922399999999999,-2.4798960147108837,[0.5],,10.1039/c5cp04739k,Halides
mp-19017,LiFePO4,True,False,3.922399999999999,-2.4798960147108837,[3.6],,10.1039/c5cp04739k,Halides
mp-19017,LiFePO4,True,False,3.922399999999999,-2.4798960147108837,[1.2],,10.1039/c1ee02283k,Halides
mp-19017,LiFePO4,True,False,3.922399999999999,-2.4798960147108837,[3.8],,10.1039/c2jm31122d,Halides
mp-19017,LiFePO4,True,False,3.922399999999999,-2.4798960147108837,[2.7],,10.1039/c6ta10674a,Halides
mp-19017,LiFePO4,True,False,3.922399999999999,-2.4798960147108837,[0.3],,10.1039/c7ra04194b,Halides
mp-19017,LiFePO4,True,False,3.922399999999999,-2.4798960147108837,[3.9],,10.1039/c8nr10224d,Halides
mp-19017,LiFePO4,True,False,3.922399999999999,-2.4798960147108837,[3.7],,10.1039/b602698b,Halides
mp-19017,LiFePO4,True,False,3.922399999999999,-2.4798960147108837,[0.3],,10.1007/s10853-009-3316-z,Halides
mp-19017,LiFePO4,True,False,3.922399999999999,-2.4798960147108837,[3.1],,10.1007/s11581-019-03007-3,Halides
mp-1200917,SmBiW2O9,False,False,2.6689,-2.474325542115385,[3.39],,10.1039/c1dt10748h,Double anions
mp-20944,Sr2PbO4,True,False,1.3966,-2.4660533835714302,[1.75],,10.1039/c5ta02349a,Double anions
mp-1200447,LaYS3,True,False,0.7897999999999991,-2.4628581604375,[1.79],,10.1039/c7ee02702h,Chalcogenides
mp-1200447,LaYS3,True,False,0.7897999999999991,-2.4628581604375,[1.9],,10.1039/c7ee02702h,Chalcogenides
mp-1200447,LaYS3,True,False,0.7897999999999991,-2.4628581604375,[2.0],,10.1039/c9dt01485c,Chalcogenides
mp-755225,Li8ZrO6,False,True,4.7984,-2.46284939711111,[4.74],,10.1039/c3cp51101d,Oxides
mp-557391,Na2Ca2(CO3)3,True,False,4.788699999999999,-2.462837518141165,[6.05],,10.1039/c7tc02789c,Double anions
mp-18571,BaCrO4,True,False,2.9695,-2.461335070833333,[2.63],,10.1039/c5ra11682a,Oxides
mp-18571,BaCrO4,True,False,2.9695,-2.461335070833333,[2.63],,10.1039/c5ra23482d,Oxides
mp-18571,BaCrO4,True,False,2.9695,-2.461335070833333,[0.9],,10.1007/s00214-015-1675-x,Oxides
mp-18571,BaCrO4,True,False,2.9695,-2.461335070833333,[2.63],,10.1007/s00214-015-1675-x,Oxides
mp-241,CdF2,True,False,2.8977,-2.459148011666666,[6.0],,10.1021/jacs.5b03986,Double anions
mp-22113,Ca2Fe2O5,True,False,0.8630999999999991,-2.456190248055555,[2.2],,10.1016/j.jece.2018.04.003,Double anions
mp-22113,Ca2Fe2O5,True,False,0.8630999999999991,-2.456190248055555,[2.2],,10.1016/j.jece.2019.103224,Double anions
mp-22113,Ca2Fe2O5,True,False,0.8630999999999991,-2.456190248055555,[1.86],,10.1007/s11144-009-0135-9,Double anions
mp-23127,Ba2BiSbO6,True,False,1.6958000000000002,-2.453007172999998,[3.0],,10.1039/c9tc06919d,Double anions
mp-2173,P2O5,True,False,4.8374,-2.449045707040817,[7.0],,10.1039/c9nr09942e,Double anions
mp-510607,SrCrO4,True,False,2.857599999999999,-2.448814325416667,[2.44],,10.1007/s00214-015-1675-x,Chalcogenides
mp-510607,SrCrO4,True,False,2.857599999999999,-2.448814325416667,[2.45],,10.1002/zaac.201500211,Chalcogenides
mp-18844,CaMn2O4,True,False,2.0103,-2.447901434051724,[1.4],800,10.1007/s10854-016-6087-8,Double anions
mp-18844,CaMn2O4,True,False,2.0103,-2.447901434051724,[1.94],,10.1007/s10854-016-6087-8,Double anions
mp-3789,Zn2SiO4,True,False,2.7537000000000003,-2.44712343857143,[5.5],,10.1016/j.physb.2011.07.054,Double anions
mp-3789,Zn2SiO4,True,False,2.7537000000000003,-2.44712343857143,[2.46],,10.1016/j.rinp.2017.09.057,Double anions
mp-3789,Zn2SiO4,True,False,2.7537000000000003,-2.44712343857143,[5.5],,10.1016/j.tsf.2018.10.003,Double anions
mp-3789,Zn2SiO4,True,False,2.7537000000000003,-2.44712343857143,[3.2],,10.1016/j.matchemphys.2019.122144,Double anions
mp-3789,Zn2SiO4,True,False,2.7537000000000003,-2.44712343857143,[5.5],,10.1016/j.matchemphys.2019.122144,Double anions
mp-3789,Zn2SiO4,True,False,2.7537000000000003,-2.44712343857143,[5.05],,10.1016/j.matlet.2018.08.085,Double anions
mp-3789,Zn2SiO4,True,False,2.7537000000000003,-2.44712343857143,[2.537],,10.1039/c5tc01420d,Double anions
mp-3789,Zn2SiO4,True,False,2.7537000000000003,-2.44712343857143,[5.5],,10.1007/s13204-018-0697-9,Double anions
mp-3789,Zn2SiO4,True,False,2.7537000000000003,-2.44712343857143,[4.86],,10.1007/s10854-018-0184-9,Double anions
mp-3789,Zn2SiO4,True,False,2.7537000000000003,-2.44712343857143,[5.5],,10.1007/s10854-015-3856-8,Double anions
mp-3789,Zn2SiO4,True,False,2.7537000000000003,-2.44712343857143,[3.2],,10.1007/s10854-015-3856-8,Double anions
mp-5348,MgCO3,True,False,4.9603,-2.442494105500001,[5.08],,10.1016/j.physb.2010.12.049,Oxides
mp-1672,CaS,True,False,2.3819,-2.435607998906249,[4.6],,10.1016/j.optmat.2009.10.010,Chalcogenides
mp-1672,CaS,True,False,2.3819,-2.435607998906249,[0.001],,10.1016/j.optmat.2013.03.001,Chalcogenides
mp-1672,CaS,True,False,2.3819,-2.435607998906249,[4.43],,10.1016/j.optmat.2014.11.048,Chalcogenides
mp-1672,CaS,True,False,2.3819,-2.435607998906249,[4.9],,10.1016/j.optmat.2017.04.045,Chalcogenides
mp-1672,CaS,True,False,2.3819,-2.435607998906249,[5.38],,10.1016/j.physb.2006.09.019,Chalcogenides
mp-1672,CaS,True,False,2.3819,-2.435607998906249,[3.63],,10.1016/j.physb.2006.09.019,Chalcogenides
mp-1672,CaS,True,False,2.3819,-2.435607998906249,[4.4],,10.1039/c3tc32115k,Chalcogenides
mp-1672,CaS,True,False,2.3819,-2.435607998906249,[2.6],,10.1039/c8tc05133j,Chalcogenides
mp-1672,CaS,True,False,2.3819,-2.435607998906249,[4.3],,10.1039/c9nr03421h,Chalcogenides
mp-1672,CaS,True,False,2.3819,-2.435607998906249,[5.8],,10.1039/b911215d,Chalcogenides
mp-1672,CaS,True,False,2.3819,-2.435607998906249,[4.9],,10.1007/s10854-020-04151-7,Chalcogenides
mp-1672,CaS,True,False,2.3819,-2.435607998906249,[4.5],,10.1007/s10895-019-02375-3,Chalcogenides
mp-1672,CaS,True,False,2.3819,-2.435607998906249,[3.5],,10.1007/s10948-020-05706-9,Chalcogenides
mp-1672,CaS,True,False,2.3819,-2.435607998906249,[4.43],,10.1007/s10895-018-2266-8,Chalcogenides
mp-1672,CaS,True,False,2.3819,-2.435607998906249,[6.0],,10.1021/jacs.5b03986,Chalcogenides
mp-1672,CaS,True,False,2.3819,-2.435607998906249,[5.38],,10.1021/jacs.5b03986,Chalcogenides
mp-28549,Li8SiO6,True,False,4.4509,-2.435039187444444,[4.55],,10.1039/c3cp51659h,Chalcogenides
mp-28549,Li8SiO6,True,False,4.4509,-2.435039187444444,[4.94],,10.1039/c3cp51659h,Chalcogenides
mp-19373,LiVO3,True,False,3.0342,-2.427956693666677,[0.4],,10.1038/srep34085,Oxides
mp-1195571,Cs2Mg2(WO4)3,False,False,4.659,-2.427450129174229,[4.53],,10.1002/ejic.201500009,Double anions
mp-1087,SrS,True,False,2.497,-2.42450937390625,[4.76],,10.1021/jacs.5b03986,Chalcogenides
mp-1087,SrS,True,False,2.497,-2.42450937390625,[4.8],,10.1021/jacs.5b03986,Chalcogenides
mp-23263,LaBr3,True,False,2.9266,-2.423042803749999,[3.75],,10.1016/j.tsf.2008.03.020,Halides
mp-20546,Ba2In2O5,True,False,0.919,-2.422391895925927,[2.94],,10.1039/c9cp04551a,Double anions
mp-504651,CsVO3,True,False,3.1105,-2.4174072654310352,[2.14],,10.1039/c8tc05110k,Oxides