mpids,formula,is_stable,theoretical,band_gap,formation_energy_per_atom,Value,Temperature_raw_value,DOI,compound_type
mp-390,TiO2,True,False,2.0586,-3.508055451944444,[3.0],,10.1039/c6ra25987a,Double anions
mp-390,TiO2,True,False,2.0586,-3.508055451944444,[3.2],,10.1039/c6ra27160j,Double anions
mp-390,TiO2,True,False,2.0586,-3.508055451944444,[3.23],,10.1039/c6ra28479e,Double anions
mp-390,TiO2,True,False,2.0586,-3.508055451944444,[1.54],,10.1039/c6ra28479e,Double anions
mp-390,TiO2,True,False,2.0586,-3.508055451944444,[3.2],,10.1039/c6ra28479e,Double anions
mp-390,TiO2,True,False,2.0586,-3.508055451944444,[3.3],,10.1039/c6ra28658e,Double anions
mp-390,TiO2,True,False,2.0586,-3.508055451944444,[7.51],,10.1039/c6ra28878b,Double anions
mp-390,TiO2,True,False,2.0586,-3.508055451944444,[3.0],,10.1039/c6sc00389c,Double anions
mp-390,TiO2,True,False,2.0586,-3.508055451944444,[3.2],,10.1039/c6ta00033a,Double anions
mp-390,TiO2,True,False,2.0586,-3.508055451944444,[1.6],,10.1039/c6ta00293e,Double anions
mp-390,TiO2,True,False,2.0586,-3.508055451944444,[3.0],,10.1039/c6ta00293e,Double anions
mp-390,TiO2,True,False,2.0586,-3.508055451944444,[3.03],,10.1039/c6ta01668e,Double anions
mp-390,TiO2,True,False,2.0586,-3.508055451944444,[3.2],,10.1039/c6ta03853k,Double anions
mp-390,TiO2,True,False,2.0586,-3.508055451944444,[3.38],,10.1039/c6ta05008e,Double anions
mp-390,TiO2,True,False,2.0586,-3.508055451944444,[2.37],,10.1039/c6ta05055g,Double anions
mp-390,TiO2,True,False,2.0586,-3.508055451944444,[3.2],,10.1039/c6ta07997k,Double anions
mp-390,TiO2,True,False,2.0586,-3.508055451944444,[3.2],,10.1039/c6ta10122d,Double anions
mp-390,TiO2,True,False,2.0586,-3.508055451944444,[1.5],,10.1039/c6ta10375h,Double anions
mp-390,TiO2,True,False,2.0586,-3.508055451944444,[3.2],,10.1039/c6ta10497e,Double anions
mp-390,TiO2,True,False,2.0586,-3.508055451944444,[3.0],,10.1039/c6ta10541f,Double anions
mp-390,TiO2,True,False,2.0586,-3.508055451944444,[3.2],,10.1039/c6tb00295a,Double anions
mp-390,TiO2,True,False,2.0586,-3.508055451944444,[2.32],,10.1039/c6tb01414c,Double anions
mp-390,TiO2,True,False,2.0586,-3.508055451944444,[3.2],,10.1039/c6tc00243a,Double anions
mp-390,TiO2,True,False,2.0586,-3.508055451944444,[7.5],,10.1039/c6tc05297e,Double anions
mp-390,TiO2,True,False,2.0586,-3.508055451944444,[2.75],,10.1039/c6tc05297e,Double anions
mp-390,TiO2,True,False,2.0586,-3.508055451944444,[3.2],,10.1039/c7ay02625k,Double anions
mp-390,TiO2,True,False,2.0586,-3.508055451944444,[3.1],,10.1039/c7cc01952a,Double anions
mp-390,TiO2,True,False,2.0586,-3.508055451944444,[2.4],,10.1039/c7cp00188f,Double anions
mp-390,TiO2,True,False,2.0586,-3.508055451944444,[2.35],,10.1039/c7cp00188f,Double anions
mp-390,TiO2,True,False,2.0586,-3.508055451944444,[3.1],,10.1039/c7cp01300k,Double anions
mp-390,TiO2,True,False,2.0586,-3.508055451944444,[0.99],,10.1039/c7cp01462g,Double anions
mp-390,TiO2,True,False,2.0586,-3.508055451944444,[1.19],,10.1039/c7cp01462g,Double anions
mp-390,TiO2,True,False,2.0586,-3.508055451944444,[2.2],,10.1039/c7cp02358h,Double anions
mp-390,TiO2,True,False,2.0586,-3.508055451944444,[3.3],,10.1039/c7cp04642a,Double anions
mp-390,TiO2,True,False,2.0586,-3.508055451944444,[2.1],,10.1039/c7cp05523d,Double anions
mp-390,TiO2,True,False,2.0586,-3.508055451944444,[3.11],,10.1039/c7cp05582j,Double anions
mp-390,TiO2,True,False,2.0586,-3.508055451944444,[3.35],,10.1039/c7cp05638a,Double anions
mp-390,TiO2,True,False,2.0586,-3.508055451944444,[3.2],,10.1039/c7cp06274e,Double anions
mp-390,TiO2,True,False,2.0586,-3.508055451944444,[3.0],,10.1039/c7cp07762a,Double anions
mp-390,TiO2,True,False,2.0586,-3.508055451944444,[3.2],,10.1039/c7cp07762a,Double anions
mp-390,TiO2,True,False,2.0586,-3.508055451944444,[3.2],,10.1039/c7cy00529f,Double anions
mp-390,TiO2,True,False,2.0586,-3.508055451944444,[3.2],,10.1039/c7cy01207a,Double anions
mp-390,TiO2,True,False,2.0586,-3.508055451944444,[0.7],,10.1039/c7cy01207a,Double anions
mp-390,TiO2,True,False,2.0586,-3.508055451944444,[3.2],,10.1039/c7cy01349c,Double anions
mp-390,TiO2,True,False,2.0586,-3.508055451944444,[1.15],,10.1039/c7cy01349c,Double anions
mp-390,TiO2,True,False,2.0586,-3.508055451944444,[3.15],,10.1039/c7cy01349c,Double anions
mp-390,TiO2,True,False,2.0586,-3.508055451944444,[3.2],,10.1039/c7cy02382k,Double anions
mp-390,TiO2,True,False,2.0586,-3.508055451944444,[3.44],,10.1039/c7cy02382k,Double anions
mp-390,TiO2,True,False,2.0586,-3.508055451944444,[3.2],,10.1039/c7cy02641b,Double anions
mp-390,TiO2,True,False,2.0586,-3.508055451944444,[3.2],,10.1039/c7dt01574g,Double anions
mp-390,TiO2,True,False,2.0586,-3.508055451944444,[3.0],,10.1039/c7dt02063e,Double anions
mp-390,TiO2,True,False,2.0586,-3.508055451944444,[3.2],,10.1039/c7dt02639k,Double anions
mp-390,TiO2,True,False,2.0586,-3.508055451944444,[3.3],-600,10.1039/c7dt03057f,Double anions
mp-390,TiO2,True,False,2.0586,-3.508055451944444,[3.2],,10.1039/c7dt04096b,Double anions
mp-390,TiO2,True,False,2.0586,-3.508055451944444,[3.2],,10.1039/c7dt04279e,Double anions
mp-390,TiO2,True,False,2.0586,-3.508055451944444,[3.2],,10.1039/c7ee02464a,Double anions
mp-390,TiO2,True,False,2.0586,-3.508055451944444,[3.2],,10.1039/c7ee03503a,Double anions
mp-390,TiO2,True,False,2.0586,-3.508055451944444,[3.7],,10.1039/c7ee03620e,Double anions
mp-390,TiO2,True,False,2.0586,-3.508055451944444,[3.4],,10.1039/c7gc00807d,Double anions
mp-390,TiO2,True,False,2.0586,-3.508055451944444,[3.0],,10.1039/c7gc03173d,Double anions
mp-390,TiO2,True,False,2.0586,-3.508055451944444,[2.76],,10.1039/c7me00038c,Double anions
mp-390,TiO2,True,False,2.0586,-3.508055451944444,[3.04],,10.1039/c7nj00198c,Double anions
mp-390,TiO2,True,False,2.0586,-3.508055451944444,[3.2],,10.1039/c7nj00213k,Double anions
mp-390,TiO2,True,False,2.0586,-3.508055451944444,[1.43],,10.1039/c7nj00737j,Double anions
mp-390,TiO2,True,False,2.0586,-3.508055451944444,[3.2],,10.1039/c7nj01421j,Double anions
mp-390,TiO2,True,False,2.0586,-3.508055451944444,[2.95],,10.1039/c7nj01421j,Double anions
mp-390,TiO2,True,False,2.0586,-3.508055451944444,[3.14],,10.1039/c7nj02053h,Double anions
mp-390,TiO2,True,False,2.0586,-3.508055451944444,[3.2],,10.1039/c7nj02320k,Double anions
mp-390,TiO2,True,False,2.0586,-3.508055451944444,[2.91],,10.1039/c7nj02509b,Double anions
mp-390,TiO2,True,False,2.0586,-3.508055451944444,[3.2],,10.1039/c7nj02509b,Double anions
mp-390,TiO2,True,False,2.0586,-3.508055451944444,[1.81],,10.1039/c7nj02838e,Double anions
mp-390,TiO2,True,False,2.0586,-3.508055451944444,[3.2],,10.1039/c7nj03153j,Double anions
mp-390,TiO2,True,False,2.0586,-3.508055451944444,[3.2],,10.1039/c7nj03183a,Double anions
mp-390,TiO2,True,False,2.0586,-3.508055451944444,[3.1],,10.1039/c7nj03305b,Double anions
mp-390,TiO2,True,False,2.0586,-3.508055451944444,[3.2],,10.1039/c7nj03617e,Double anions
mp-390,TiO2,True,False,2.0586,-3.508055451944444,[3.2],,10.1039/c7nj03889e,Double anions
mp-390,TiO2,True,False,2.0586,-3.508055451944444,[2.95],,10.1039/c7nj04008c,Double anions
mp-390,TiO2,True,False,2.0586,-3.508055451944444,[1.87],,10.1039/c7nj04612j,Double anions
mp-390,TiO2,True,False,2.0586,-3.508055451944444,[3.2],,10.1039/c7nj04645f,Double anions
mp-390,TiO2,True,False,2.0586,-3.508055451944444,[3.04],,10.1039/c7nj05118b,Double anions
mp-390,TiO2,True,False,2.0586,-3.508055451944444,[5.81],,10.1039/c7nj05118b,Double anions
mp-390,TiO2,True,False,2.0586,-3.508055451944444,[0.5],,10.1039/c7nr02458d,Double anions
mp-390,TiO2,True,False,2.0586,-3.508055451944444,[3.2],,10.1039/c7nr03506c,Double anions
mp-390,TiO2,True,False,2.0586,-3.508055451944444,[2.97],,10.1039/c7nr05687g,Double anions
mp-390,TiO2,True,False,2.0586,-3.508055451944444,[1.54],,10.1039/c7nr06526d,Double anions
mp-390,TiO2,True,False,2.0586,-3.508055451944444,[3.2],,10.1039/c7nr06526d,Double anions
mp-390,TiO2,True,False,2.0586,-3.508055451944444,[3.2],,10.1039/c7nr09023d,Double anions
mp-390,TiO2,True,False,2.0586,-3.508055451944444,[3.2],,10.1039/c7nr09201f,Double anions
mp-390,TiO2,True,False,2.0586,-3.508055451944444,[3.2],,10.1039/c7pp00039a,Double anions
mp-390,TiO2,True,False,2.0586,-3.508055451944444,[3.06],,10.1039/c7qi00278e,Double anions
mp-390,TiO2,True,False,2.0586,-3.508055451944444,[2.98],,10.1039/c7qm00019g,Double anions
mp-390,TiO2,True,False,2.0586,-3.508055451944444,[3.2],,10.1039/c7qm00155j,Double anions
mp-390,TiO2,True,False,2.0586,-3.508055451944444,[3.2],,10.1039/c7ra00050b,Double anions
mp-390,TiO2,True,False,2.0586,-3.508055451944444,[3.2],,10.1039/c7ra00134g,Double anions
mp-390,TiO2,True,False,2.0586,-3.508055451944444,[3.2],,10.1039/c7ra00164a,Double anions
mp-390,TiO2,True,False,2.0586,-3.508055451944444,[3.2],,10.1039/c7ra00312a,Double anions
mp-390,TiO2,True,False,2.0586,-3.508055451944444,[3.2],,10.1039/c7ra00546f,Double anions
mp-390,TiO2,True,False,2.0586,-3.508055451944444,[3.12],,10.1039/c7ra00546f,Double anions
mp-390,TiO2,True,False,2.0586,-3.508055451944444,[2.0],,10.1039/c7ra01385j,Double anions
mp-390,TiO2,True,False,2.0586,-3.508055451944444,[3.2],,10.1039/c7ra01782k,Double anions
mp-390,TiO2,True,False,2.0586,-3.508055451944444,[3.2],,10.1039/c7ra02423a,Double anions
mp-390,TiO2,True,False,2.0586,-3.508055451944444,[3.11],,10.1039/c7ra02423a,Double anions
mp-390,TiO2,True,False,2.0586,-3.508055451944444,[2.49],,10.1039/c7ra03063k,Double anions
mp-390,TiO2,True,False,2.0586,-3.508055451944444,[3.2],,10.1039/c7ra03071a,Double anions
mp-390,TiO2,True,False,2.0586,-3.508055451944444,[3.2],,10.1039/c7ra03177g,Double anions
mp-390,TiO2,True,False,2.0586,-3.508055451944444,[3.2],,10.1039/c7ra03268d,Double anions
mp-390,TiO2,True,False,2.0586,-3.508055451944444,[3.0],,10.1039/c7ra03633g,Double anions
mp-390,TiO2,True,False,2.0586,-3.508055451944444,[3.2],,10.1039/c7ra04175f,Double anions
mp-390,TiO2,True,False,2.0586,-3.508055451944444,[3.2],,10.1039/c7ra04885h,Double anions
mp-390,TiO2,True,False,2.0586,-3.508055451944444,[2.98],,10.1039/c7ra04885h,Double anions
mp-390,TiO2,True,False,2.0586,-3.508055451944444,[3.2],,10.1039/c7ra04944g,Double anions
mp-390,TiO2,True,False,2.0586,-3.508055451944444,[3.0],,10.1039/c7ra05217k,Double anions
mp-390,TiO2,True,False,2.0586,-3.508055451944444,[3.2],,10.1039/c7ra06786k,Double anions
mp-390,TiO2,True,False,2.0586,-3.508055451944444,[3.14],,10.1039/c7ra06786k,Double anions
mp-390,TiO2,True,False,2.0586,-3.508055451944444,[3.37],,10.1039/c7ra07644d,Double anions
mp-390,TiO2,True,False,2.0586,-3.508055451944444,[2.12],,10.1039/c7ra07815c,Double anions
mp-390,TiO2,True,False,2.0586,-3.508055451944444,[2.713],,10.1039/c7ra07815c,Double anions
mp-390,TiO2,True,False,2.0586,-3.508055451944444,[3.2],,10.1039/c7ra08369f,Double anions
mp-390,TiO2,True,False,2.0586,-3.508055451944444,[3.2],,10.1039/c7ra09368c,Double anions
mp-390,TiO2,True,False,2.0586,-3.508055451944444,[3.23],,10.1039/c7ra09585f,Double anions
mp-390,TiO2,True,False,2.0586,-3.508055451944444,[3.45],650,10.1039/c7ra09801d,Double anions
mp-390,TiO2,True,False,2.0586,-3.508055451944444,[3.2],,10.1039/c7ra10060d,Double anions
mp-390,TiO2,True,False,2.0586,-3.508055451944444,[3.18],,10.1039/c7ra11055c,Double anions
mp-390,TiO2,True,False,2.0586,-3.508055451944444,[3.2],,10.1039/c7ra12355h,Double anions
mp-390,TiO2,True,False,2.0586,-3.508055451944444,[2.89],,10.1039/c7ra12638g,Double anions
mp-390,TiO2,True,False,2.0586,-3.508055451944444,[3.2],,10.1039/c7ra12638g,Double anions
mp-390,TiO2,True,False,2.0586,-3.508055451944444,[3.2],,10.1039/c7ra12766a,Double anions
mp-390,TiO2,True,False,2.0586,-3.508055451944444,[3.0],,10.1039/c7ra13116j,Double anions
mp-390,TiO2,True,False,2.0586,-3.508055451944444,[3.2],,10.1039/c7ra13501g,Double anions
mp-390,TiO2,True,False,2.0586,-3.508055451944444,[3.2],,10.1039/c7se00009j,Double anions
mp-390,TiO2,True,False,2.0586,-3.508055451944444,[0.05],,10.1039/c7se00100b,Double anions
mp-390,TiO2,True,False,2.0586,-3.508055451944444,[3.2],,10.1039/c7se00589j,Double anions
mp-390,TiO2,True,False,2.0586,-3.508055451944444,[2.85],,10.1039/c7ta00095b,Double anions
mp-390,TiO2,True,False,2.0586,-3.508055451944444,[3.2],,10.1039/c7ta01888f,Double anions
mp-390,TiO2,True,False,2.0586,-3.508055451944444,[3.2],,10.1039/c7ta02029e,Double anions
mp-390,TiO2,True,False,2.0586,-3.508055451944444,[1.54],,10.1039/c7ta04441k,Double anions
mp-390,TiO2,True,False,2.0586,-3.508055451944444,[3.2],,10.1039/c7ta04544a,Double anions
mp-390,TiO2,True,False,2.0586,-3.508055451944444,[3.3],450,10.1039/c7ta06339c,Double anions
mp-390,TiO2,True,False,2.0586,-3.508055451944444,[3.31],,10.1039/c7ta07176k,Double anions
mp-390,TiO2,True,False,2.0586,-3.508055451944444,[3.2],,10.1039/c7ta08074c,Double anions
mp-390,TiO2,True,False,2.0586,-3.508055451944444,[3.08],,10.1039/c7ta09096j,Double anions
mp-390,TiO2,True,False,2.0586,-3.508055451944444,[2.95],,10.1039/c7ta09350k,Double anions
mp-390,TiO2,True,False,2.0586,-3.508055451944444,[3.0],,10.1039/c7ta09590b,Double anions
mp-390,TiO2,True,False,2.0586,-3.508055451944444,[2.39],,10.1039/c7ta09590b,Double anions
mp-390,TiO2,True,False,2.0586,-3.508055451944444,[2.99],,10.1039/c7ta10274g,Double anions
mp-390,TiO2,True,False,2.0586,-3.508055451944444,[3.03],,10.1039/c7tc02287e,Double anions
mp-390,TiO2,True,False,2.0586,-3.508055451944444,[3.62],,10.1039/c7tc02633a,Double anions
mp-390,TiO2,True,False,2.0586,-3.508055451944444,[3.2],,10.1039/c7tc04189f,Double anions
mp-390,TiO2,True,False,2.0586,-3.508055451944444,[3.2],,10.1039/c7tc04649a,Double anions
mp-390,TiO2,True,False,2.0586,-3.508055451944444,[3.0],,10.1039/c7tc04811d,Double anions
mp-390,TiO2,True,False,2.0586,-3.508055451944444,[3.08],,10.1039/c7tc04811d,Double anions
mp-390,TiO2,True,False,2.0586,-3.508055451944444,[3.2],,10.1039/c8an00187a,Double anions
mp-390,TiO2,True,False,2.0586,-3.508055451944444,[3.2],,10.1039/c8cc01850b,Double anions
mp-390,TiO2,True,False,2.0586,-3.508055451944444,[3.26],,10.1039/c8cc01850b,Double anions
mp-390,TiO2,True,False,2.0586,-3.508055451944444,[3.27],,10.1039/c8cc01850b,Double anions
mp-390,TiO2,True,False,2.0586,-3.508055451944444,[3.227],,10.1039/c8cc01850b,Double anions
mp-390,TiO2,True,False,2.0586,-3.508055451944444,[3.231],,10.1039/c8cc01850b,Double anions
mp-390,TiO2,True,False,2.0586,-3.508055451944444,[3.2],,10.1039/c8cc02627k,Double anions
mp-390,TiO2,True,False,2.0586,-3.508055451944444,[3.2],,10.1039/c8ce00920a,Double anions
mp-390,TiO2,True,False,2.0586,-3.508055451944444,[3.48],,10.1039/c8ce01072b,Double anions
mp-390,TiO2,True,False,2.0586,-3.508055451944444,[3.5],,10.1039/c8ce01072b,Double anions
mp-390,TiO2,True,False,2.0586,-3.508055451944444,[3.2],,10.1039/c8ce01267a,Double anions
mp-390,TiO2,True,False,2.0586,-3.508055451944444,[3.2],,10.1039/c8ce01534a,Double anions
mp-390,TiO2,True,False,2.0586,-3.508055451944444,[3.2],,10.1039/c8cp01978a,Double anions
mp-390,TiO2,True,False,2.0586,-3.508055451944444,[2.7],,10.1039/c8cp02044b,Double anions
mp-390,TiO2,True,False,2.0586,-3.508055451944444,[0.78],,10.1039/c8cp02535e,Double anions
mp-390,TiO2,True,False,2.0586,-3.508055451944444,[0.24],,10.1039/c8cp02535e,Double anions
mp-390,TiO2,True,False,2.0586,-3.508055451944444,[0.82],,10.1039/c8cp02535e,Double anions
mp-390,TiO2,True,False,2.0586,-3.508055451944444,[3.2],,10.1039/c8cp04310h,Double anions
mp-390,TiO2,True,False,2.0586,-3.508055451944444,[3.1],,10.1039/c8cp05223a,Double anions
mp-390,TiO2,True,False,2.0586,-3.508055451944444,[1.84],,10.1039/c8cs00396c,Double anions
mp-390,TiO2,True,False,2.0586,-3.508055451944444,[3.0],,10.1039/c8cs00396c,Double anions
mp-390,TiO2,True,False,2.0586,-3.508055451944444,[3.2],,10.1039/c8cs00479j,Double anions
mp-390,TiO2,True,False,2.0586,-3.508055451944444,[4.5],,10.1039/c8cs00527c,Double anions
mp-390,TiO2,True,False,2.0586,-3.508055451944444,[2.6],,10.1039/c8cs00527c,Double anions
mp-390,TiO2,True,False,2.0586,-3.508055451944444,[3.2],,10.1039/c8cs00711j,Double anions
mp-390,TiO2,True,False,2.0586,-3.508055451944444,[2.8],,10.1039/c8cs00711j,Double anions
mp-390,TiO2,True,False,2.0586,-3.508055451944444,[3.2],,10.1039/c8cy00380g,Double anions
mp-390,TiO2,True,False,2.0586,-3.508055451944444,[3.18],,10.1039/c8cy01040d,Double anions
mp-390,TiO2,True,False,2.0586,-3.508055451944444,[3.08],,10.1039/c8cy01040d,Double anions
mp-390,TiO2,True,False,2.0586,-3.508055451944444,[0.7],,10.1039/c8cy01395k,Double anions
mp-390,TiO2,True,False,2.0586,-3.508055451944444,[3.2],,10.1039/c8cy02142b,Double anions
mp-390,TiO2,True,False,2.0586,-3.508055451944444,[2.34],,10.1039/c8dt01418c,Double anions
mp-390,TiO2,True,False,2.0586,-3.508055451944444,[2.19],,10.1039/c8dt01418c,Double anions
mp-390,TiO2,True,False,2.0586,-3.508055451944444,[3.2],,10.1039/c8dt01685b,Double anions
mp-390,TiO2,True,False,2.0586,-3.508055451944444,[3.2],,10.1039/c8dt02246a,Double anions
mp-390,TiO2,True,False,2.0586,-3.508055451944444,[3.15],,10.1039/c8dt02246a,Double anions
mp-390,TiO2,True,False,2.0586,-3.508055451944444,[3.04],,10.1039/c8dt02343c,Double anions
mp-390,TiO2,True,False,2.0586,-3.508055451944444,[3.2],,10.1039/c8dt02636j,Double anions
mp-390,TiO2,True,False,2.0586,-3.508055451944444,[3.18],,10.1039/c8fd00146d,Double anions
mp-390,TiO2,True,False,2.0586,-3.508055451944444,[3.2],,10.1039/c8gc03300e,Double anions
mp-390,TiO2,True,False,2.0586,-3.508055451944444,[3.2],,10.1039/c8nh00227d,Double anions
mp-390,TiO2,True,False,2.0586,-3.508055451944444,[2.5],,10.1039/c8nj01069b,Double anions
mp-390,TiO2,True,False,2.0586,-3.508055451944444,[3.2],,10.1039/c8nj01410h,Double anions
mp-390,TiO2,True,False,2.0586,-3.508055451944444,[3.02],,10.1039/c8nj01410h,Double anions
mp-390,TiO2,True,False,2.0586,-3.508055451944444,[3.2],,10.1039/c8nj01731j,Double anions
mp-390,TiO2,True,False,2.0586,-3.508055451944444,[3.15],,10.1039/c8nj02253d,Double anions
mp-390,TiO2,True,False,2.0586,-3.508055451944444,[3.2],,10.1039/c8nj02716a,Double anions
mp-390,TiO2,True,False,2.0586,-3.508055451944444,[2.83],,10.1039/c8nj02716a,Double anions
mp-390,TiO2,True,False,2.0586,-3.508055451944444,[3.03],,10.1039/c8nj04047h,Double anions
mp-390,TiO2,True,False,2.0586,-3.508055451944444,[3.19],,10.1039/c8nj04047h,Double anions
mp-390,TiO2,True,False,2.0586,-3.508055451944444,[2.96],,10.1039/c8nj04047h,Double anions
mp-390,TiO2,True,False,2.0586,-3.508055451944444,[3.2],,10.1039/c8nj04595j,Double anions
mp-390,TiO2,True,False,2.0586,-3.508055451944444,[3.12],,10.1039/c8nj04595j,Double anions
mp-390,TiO2,True,False,2.0586,-3.508055451944444,[3.2],,10.1039/c8nj05260c,Double anions
mp-390,TiO2,True,False,2.0586,-3.508055451944444,[3.11],450,10.1039/c8nr02824a,Double anions
mp-390,TiO2,True,False,2.0586,-3.508055451944444,[3.19],,10.1039/c8nr03534b,Double anions
mp-390,TiO2,True,False,2.0586,-3.508055451944444,[3.2],,10.1039/c8pp00332g,Double anions
mp-390,TiO2,True,False,2.0586,-3.508055451944444,[3.2],,10.1039/c8pp00424b,Double anions
mp-390,TiO2,True,False,2.0586,-3.508055451944444,[3.6],,10.1039/c8qi00688a,Double anions
mp-390,TiO2,True,False,2.0586,-3.508055451944444,[2.19],,10.1039/c8ra00021b,Double anions
mp-390,TiO2,True,False,2.0586,-3.508055451944444,[3.2],,10.1039/c8ra00766g,Double anions
mp-390,TiO2,True,False,2.0586,-3.508055451944444,[3.2],,10.1039/c8ra01235k,Double anions
mp-390,TiO2,True,False,2.0586,-3.508055451944444,[3.1],,10.1039/c8ra02077a,Double anions
mp-390,TiO2,True,False,2.0586,-3.508055451944444,[3.2],,10.1039/c8ra03919d,Double anions
mp-390,TiO2,True,False,2.0586,-3.508055451944444,[2.5],,10.1039/c8ra05450a,Double anions
mp-390,TiO2,True,False,2.0586,-3.508055451944444,[2.7],,10.1039/c8ra06161k,Double anions
mp-390,TiO2,True,False,2.0586,-3.508055451944444,[3.12],,10.1039/c8ra06341a,Double anions
mp-390,TiO2,True,False,2.0586,-3.508055451944444,[3.22],,10.1039/c8ra06477f,Double anions
mp-390,TiO2,True,False,2.0586,-3.508055451944444,[3.01],,10.1039/c8ra08114j,Double anions
mp-390,TiO2,True,False,2.0586,-3.508055451944444,[3.2],,10.1039/c8ra09348b,Double anions
mp-390,TiO2,True,False,2.0586,-3.508055451944444,[3.2],,10.1039/c8ra09660k,Double anions