mpids,formula,is_stable,theoretical,band_gap,formation_energy_per_atom,Value,Temperature_raw_value,DOI,compound_type
mp-2383161,WO3,True,True,1.3585,-2.190860606562499,[2.74],,10.1007/s10854-014-2303-6,Oxides
mp-2383161,WO3,True,True,1.3585,-2.190860606562499,[3.244],,10.1007/s10854-015-3352-1,Oxides
mp-2383161,WO3,True,True,1.3585,-2.190860606562499,[2.8],,10.1007/s10854-015-3852-z,Oxides
mp-2383161,WO3,True,True,1.3585,-2.190860606562499,[2.7],,10.1007/s10854-020-03968-6,Oxides
mp-2383161,WO3,True,True,1.3585,-2.190860606562499,[2.67],,10.1007/s10854-020-03968-6,Oxides
mp-2383161,WO3,True,True,1.3585,-2.190860606562499,[2.6],,10.1007/s10904-017-0720-8,Oxides
mp-2383161,WO3,True,True,1.3585,-2.190860606562499,[2.62],,10.1007/s10971-019-05207-9,Oxides
mp-2383161,WO3,True,True,1.3585,-2.190860606562499,[2.8],,10.1007/s11164-019-04030-9,Oxides
mp-2383161,WO3,True,True,1.3585,-2.190860606562499,[2.1],,10.1007/s11164-019-04030-9,Oxides
mp-2383161,WO3,True,True,1.3585,-2.190860606562499,[2.8],,10.1007/s11356-016-7564-6,Oxides
mp-2383161,WO3,True,True,1.3585,-2.190860606562499,[2.0],,10.1007/s11356-019-06899-w,Oxides
mp-2383161,WO3,True,True,1.3585,-2.190860606562499,[2.0],,10.1007/s11356-020-07827-z,Oxides
mp-2383161,WO3,True,True,1.3585,-2.190860606562499,[2.32],,10.1007/s11356-020-07827-z,Oxides
mp-2383161,WO3,True,True,1.3585,-2.190860606562499,[1.35],,10.1007/s11356-020-07827-z,Oxides
mp-2383161,WO3,True,True,1.3585,-2.190860606562499,[3.17],473,10.1007/s11581-014-1073-8,Oxides
mp-2383161,WO3,True,True,1.3585,-2.190860606562499,[3.55],300,10.1007/s11665-014-1094-5,Oxides
mp-2383161,WO3,True,True,1.3585,-2.190860606562499,[3.1],,10.1007/s12034-018-1667-2,Oxides
mp-2383161,WO3,True,True,1.3585,-2.190860606562499,[2.6],,10.1007/s12034-018-1667-2,Oxides
mp-2383161,WO3,True,True,1.3585,-2.190860606562499,[2.57],,10.1007/s12598-020-01490-6,Oxides
mp-2383161,WO3,True,True,1.3585,-2.190860606562499,[3.47],,10.1007/s12666-018-1525-3,Oxides
mp-2383161,WO3,True,True,1.3585,-2.190860606562499,[0.24],,10.1007/s12666-018-1525-3,Oxides
mp-2383161,WO3,True,True,1.3585,-2.190860606562499,[2.58],,10.1007/s13762-019-02225-6,Oxides
mp-2383161,WO3,True,True,1.3585,-2.190860606562499,[2.76],,10.1007/s13762-019-02225-6,Oxides
mp-2383161,WO3,True,True,1.3585,-2.190860606562499,[2.62],,10.1007/s42864-019-00001-0,Oxides
mp-2383161,WO3,True,True,1.3585,-2.190860606562499,[2.82],,10.1038/s41467-020-16866-6,Oxides
mp-2383161,WO3,True,True,1.3585,-2.190860606562499,[4.0],,10.1038/s41598-017-01151-2,Oxides
mp-2383161,WO3,True,True,1.3585,-2.190860606562499,[3.12],,10.1038/s41598-017-01151-2,Oxides
mp-2383161,WO3,True,True,1.3585,-2.190860606562499,[2.62],,10.1007/s00339-015-9090-7,Oxides
mp-2383161,WO3,True,True,1.3585,-2.190860606562499,[2.6],300,10.1007/s10008-017-3680-6,Oxides
mp-2383161,WO3,True,True,1.3585,-2.190860606562499,[2.55],,10.1007/s10008-017-3680-6,Oxides
mp-2383161,WO3,True,True,1.3585,-2.190860606562499,[0.02],,10.1007/s10008-017-3680-6,Oxides
mp-2383161,WO3,True,True,1.3585,-2.190860606562499,[2.8],,10.1007/s10562-008-9730-z,Oxides
mp-2383161,WO3,True,True,1.3585,-2.190860606562499,[2.8],,10.1007/s10562-010-0434-9,Oxides
mp-2383161,WO3,True,True,1.3585,-2.190860606562499,[2.6],,10.1007/s10832-012-9755-y,Oxides
mp-2383161,WO3,True,True,1.3585,-2.190860606562499,[2.585],,10.1007/s10832-012-9755-y,Oxides
mp-2383161,WO3,True,True,1.3585,-2.190860606562499,[2.8],,10.1007/s10853-014-8441-7,Oxides
mp-2383161,WO3,True,True,1.3585,-2.190860606562499,[2.8],,10.1007/s10853-015-9521-z,Oxides
mp-2383161,WO3,True,True,1.3585,-2.190860606562499,[3.03],,10.1007/s10854-017-7455-8,Oxides
mp-2383161,WO3,True,True,1.3585,-2.190860606562499,[2.8],,10.1007/s11144-016-1128-0,Oxides
mp-2383161,WO3,True,True,1.3585,-2.190860606562499,[2.6],,10.1007/s11244-015-0402-0,Oxides
mp-2383161,WO3,True,True,1.3585,-2.190860606562499,[2.58],,10.1007/s40820-020-00422-4,Oxides
mp-2383161,WO3,True,True,1.3585,-2.190860606562499,[2.8],,10.1007/s42864-019-00006-9,Oxides
mp-2383161,WO3,True,True,1.3585,-2.190860606562499,[3.0],,10.1038/srep00588,Oxides
mp-2383161,WO3,True,True,1.3585,-2.190860606562499,[2.6],,10.1038/srep02409,Oxides
mp-2383161,WO3,True,True,1.3585,-2.190860606562499,[2.8],,10.1186/s11671-016-1721-1,Oxides
mp-2383161,WO3,True,True,1.3585,-2.190860606562499,[2.13],,10.1186/s12951-019-0485-z,Oxides
mp-2383161,WO3,True,True,1.3585,-2.190860606562499,[2.44],,10.1186/s12951-019-0485-z,Oxides
mp-2383161,WO3,True,True,1.3585,-2.190860606562499,[2.6],,10.1186/s13065-020-00714-1,Oxides
mp-2383161,WO3,True,True,1.3585,-2.190860606562499,[2.5],,10.1007/s00216-016-9480-5,Oxides
mp-2383161,WO3,True,True,1.3585,-2.190860606562499,[2.6],,10.1007/s00339-015-9359-x,Oxides
mp-2383161,WO3,True,True,1.3585,-2.190860606562499,[2.7],,10.1007/s00339-019-2384-4,Oxides
mp-2383161,WO3,True,True,1.3585,-2.190860606562499,[1.88],,10.1007/s00396-020-04720-6,Oxides
mp-2383161,WO3,True,True,1.3585,-2.190860606562499,[1.67],,10.1007/s00396-020-04720-6,Oxides
mp-2383161,WO3,True,True,1.3585,-2.190860606562499,[2.8],,10.1007/s10562-018-2594-y,Oxides
mp-2383161,WO3,True,True,1.3585,-2.190860606562499,[2.48],,10.1007/s10562-018-2594-y,Oxides
mp-2383161,WO3,True,True,1.3585,-2.190860606562499,[2.47],,10.1007/s10853-018-2747-9,Oxides
mp-2383161,WO3,True,True,1.3585,-2.190860606562499,[3.32],,10.1007/s10854-015-2745-5,Oxides
mp-2383161,WO3,True,True,1.3585,-2.190860606562499,[3.27],,10.1007/s10854-015-2745-5,Oxides
mp-2383161,WO3,True,True,1.3585,-2.190860606562499,[2.7],,10.1007/s10854-016-6082-0,Oxides
mp-2383161,WO3,True,True,1.3585,-2.190860606562499,[2.7],450,10.1007/s10854-016-6082-0,Oxides
mp-2383161,WO3,True,True,1.3585,-2.190860606562499,[2.77],,10.1007/s10854-016-6274-7,Oxides
mp-2383161,WO3,True,True,1.3585,-2.190860606562499,[2.5],,10.1007/s10854-017-6985-4,Oxides
mp-2383161,WO3,True,True,1.3585,-2.190860606562499,[3.0],,10.1007/s10854-017-6985-4,Oxides
mp-2383161,WO3,True,True,1.3585,-2.190860606562499,[3.08],,10.1007/s10854-019-02642-w,Oxides
mp-2383161,WO3,True,True,1.3585,-2.190860606562499,[2.8],,10.1007/s10904-018-0846-3,Oxides
mp-2383161,WO3,True,True,1.3585,-2.190860606562499,[2.55],,10.1007/s10904-018-0846-3,Oxides
mp-2383161,WO3,True,True,1.3585,-2.190860606562499,[2.8],,10.1007/s10904-019-01429-0,Oxides
mp-2383161,WO3,True,True,1.3585,-2.190860606562499,[2.75],,10.1007/s10971-015-3758-5,Oxides
mp-2383161,WO3,True,True,1.3585,-2.190860606562499,[2.15],,10.1007/s11090-020-10073-3,Oxides
mp-2383161,WO3,True,True,1.3585,-2.190860606562499,[2.8],,10.1007/s11144-011-0295-2,Oxides
mp-2383161,WO3,True,True,1.3585,-2.190860606562499,[2.7],,10.1007/s11244-016-0549-3,Oxides