mpids,formula,is_stable,theoretical,band_gap,formation_energy_per_atom,Value,Temperature_raw_value,DOI,compound_type
mp-3858,NaTaO3,True,False,2.6172,-3.062992296242529,[1.77],,10.1039/c4cp01578a,Oxides
mp-3858,NaTaO3,True,False,2.6172,-3.062992296242529,[4.1],,10.1039/c4cp01578a,Oxides
mp-3858,NaTaO3,True,False,2.6172,-3.062992296242529,[4.0],,10.1039/c4nr03019b,Oxides
mp-3858,NaTaO3,True,False,2.6172,-3.062992296242529,[2.67],,10.1039/c5cp05556c,Oxides
mp-3858,NaTaO3,True,False,2.6172,-3.062992296242529,[4.1],,10.1039/c5cp05556c,Oxides
mp-3858,NaTaO3,True,False,2.6172,-3.062992296242529,[2.8],,10.1039/c5cp05556c,Oxides
mp-3858,NaTaO3,True,False,2.6172,-3.062992296242529,[2.62],,10.1039/c5cp05556c,Oxides
mp-3858,NaTaO3,True,False,2.6172,-3.062992296242529,[4.0],,10.1039/c6ta10497e,Oxides
mp-3858,NaTaO3,True,False,2.6172,-3.062992296242529,[4.1],,10.1039/c9cs00102f,Oxides
mp-3858,NaTaO3,True,False,2.6172,-3.062992296242529,[3.9],,10.1039/c9cs00102f,Oxides
mp-3858,NaTaO3,True,False,2.6172,-3.062992296242529,[0.4],,10.1039/b818922f,Oxides
mp-3858,NaTaO3,True,False,2.6172,-3.062992296242529,[4.13],,10.1039/c2ra21241b,Oxides
mp-3858,NaTaO3,True,False,2.6172,-3.062992296242529,[2.23],,10.1039/c2ra21241b,Oxides
mp-3858,NaTaO3,True,False,2.6172,-3.062992296242529,[4.0],,10.1039/c3cc42487a,Oxides
mp-3858,NaTaO3,True,False,2.6172,-3.062992296242529,[3.94],,10.1039/c3cc42487a,Oxides
mp-3858,NaTaO3,True,False,2.6172,-3.062992296242529,[2.13],,10.1039/c4cp01000k,Oxides
mp-3858,NaTaO3,True,False,2.6172,-3.062992296242529,[0.5],,10.1039/c4cp01000k,Oxides
mp-3858,NaTaO3,True,False,2.6172,-3.062992296242529,[4.0],,10.1039/c4ta03676j,Oxides
mp-3858,NaTaO3,True,False,2.6172,-3.062992296242529,[4.2],,10.1039/c5cc01124h,Oxides
mp-3858,NaTaO3,True,False,2.6172,-3.062992296242529,[4.0],,10.1039/c7nj05123a,Oxides
mp-3858,NaTaO3,True,False,2.6172,-3.062992296242529,[4.87],,10.1039/c8nj01768a,Oxides
mp-3858,NaTaO3,True,False,2.6172,-3.062992296242529,[4.0],,10.1039/c8ra02121j,Oxides
mp-3858,NaTaO3,True,False,2.6172,-3.062992296242529,[4.1],,10.1039/c3cy00014a,Oxides
mp-3858,NaTaO3,True,False,2.6172,-3.062992296242529,[3.8],,10.1039/c4ta04132a,Oxides
mp-3858,NaTaO3,True,False,2.6172,-3.062992296242529,[4.13],,10.1039/c5tc02334c,Oxides
mp-3858,NaTaO3,True,False,2.6172,-3.062992296242529,[4.0],,10.1039/c8ee01574k,Oxides
mp-3858,NaTaO3,True,False,2.6172,-3.062992296242529,[4.1],,10.1039/c9cp06769h,Oxides
mp-3858,NaTaO3,True,False,2.6172,-3.062992296242529,[4.0],,10.1039/d0cp04322b,Oxides
mp-3858,NaTaO3,True,False,2.6172,-3.062992296242529,[3.94],,10.1007/s10971-013-3264-6,Oxides
mp-3858,NaTaO3,True,False,2.6172,-3.062992296242529,[4.0],,10.1007/s10876-013-0557-4,Oxides
mp-3858,NaTaO3,True,False,2.6172,-3.062992296242529,[3.96],,10.1007/s10876-013-0557-4,Oxides
mp-3858,NaTaO3,True,False,2.6172,-3.062992296242529,[3.98],,10.1007/s10854-014-2093-x,Oxides
mp-3858,NaTaO3,True,False,2.6172,-3.062992296242529,[3.94],,10.1007/s10971-009-2110-3,Oxides
mp-3858,NaTaO3,True,False,2.6172,-3.062992296242529,[3.54],,10.1007/s10854-020-04488-z,Oxides
mp-3858,NaTaO3,True,False,2.6172,-3.062992296242529,[3.7],,10.1007/s11051-015-2877-9,Oxides
mp-555253,La5Ti2AgS5O7,True,False,1.5072,-3.061267943791667,[1.9],,10.1039/c6nr06541d,Double anions
mp-555253,La5Ti2AgS5O7,True,False,1.5072,-3.061267943791667,[2.2],,10.1039/c7dt00867h,Double anions
mp-769396,Y2Ge2O7,True,True,3.1753,-3.054602234090915,[3.8],,10.1039/c2cp42380d,Double anions
mp-3196,NdGaO3,False,False,3.452499999999999,-3.053719460000001,[2.653],,10.1007/s10948-018-4938-7,Oxides
mp-1182128,CeVO4,False,True,0.734,-3.053251684583332,[2.11],,10.1016/j.cej.2010.01.056,Oxides
mp-1182128,CeVO4,False,True,0.734,-3.053251684583332,[1.8],,10.1016/j.jssc.2009.04.032,Oxides
mp-1182128,CeVO4,False,True,0.734,-3.053251684583332,[1.5],,10.1016/j.jssc.2009.04.032,Oxides
mp-1182128,CeVO4,False,True,0.734,-3.053251684583332,[3.47],,10.1039/c6ra18013b,Oxides
mp-1182128,CeVO4,False,True,0.734,-3.053251684583332,[3.0],,10.1007/s10854-017-7833-2,Oxides
mp-31760,Sr2TaFeO6,True,False,1.5015,-3.051403054733333,[2.18],,10.1039/c5ra01460c,Double anions
mp-753712,YIO,True,True,3.4078,-3.048536466666665,[3.16],,10.1039/c3nr05984g,Halides
mp-19319,ErMnO3,False,False,1.0455,-3.048090045586206,[1.6],1470,10.1038/s41524-020-00426-z,Oxides
mp-755882,MnAl2O4,True,False,2.6578,-3.047750007561575,[2.21],,10.1039/c7dt04765g,Double anions
mp-1019605,Cs2Ba3(P2O7)2,False,False,4.8929,-3.043588106864425,[6.31],,10.1039/c6dt00193a,Double anions
mp-1019605,Cs2Ba3(P2O7)2,False,False,4.8929,-3.043588106864425,[5.06],,10.1039/c6dt00193a,Double anions
mp-560338,CrF3,True,False,3.0453,-3.041799825625,[1.53],,10.1039/c7cp07953b,Halides
mp-6812,KBaPO4,True,False,4.950299999999999,-3.040540147413266,[4.06],,10.1007/s10854-015-3745-1,Oxides
mp-6812,KBaPO4,True,False,4.950299999999999,-3.040540147413266,[4.52],,10.1557/JMR.2010.0125,Oxides
mp-6812,KBaPO4,True,False,4.950299999999999,-3.040540147413266,[4.35],,10.1557/JMR.2010.0125,Oxides
mp-4156,Li2ZrO3,True,False,3.7336,-3.040215971111112,[4.74],,10.1039/c3cp51101d,Double anions
mp-1265,MgO,True,False,4.4292,-3.03830917,[8.0],,10.1016/j.cej.2017.02.050,Oxides
mp-1265,MgO,True,False,4.4292,-3.03830917,[7.0],,10.1016/j.cej.2019.04.218,Oxides
mp-1265,MgO,True,False,4.4292,-3.03830917,[7.8],,10.1016/j.matpr.2017.09.092,Oxides
mp-1265,MgO,True,False,4.4292,-3.03830917,[1.8],,10.1016/j.matpr.2017.09.092,Oxides
mp-1265,MgO,True,False,4.4292,-3.03830917,[4.4],,10.1016/j.matpr.2018.06.593,Oxides
mp-1265,MgO,True,False,4.4292,-3.03830917,[7.8],,10.1016/j.matpr.2019.03.096,Oxides
mp-1265,MgO,True,False,4.4292,-3.03830917,[7.5],,10.1016/j.matpr.2019.04.214,Oxides
mp-1265,MgO,True,False,4.4292,-3.03830917,[7.8],,10.1016/j.matpr.2020.02.498,Oxides
mp-1265,MgO,True,False,4.4292,-3.03830917,[4.6],,10.1016/j.matpr.2020.02.498,Oxides
mp-1265,MgO,True,False,4.4292,-3.03830917,[7.8],,10.1016/j.matpr.2020.05.338,Oxides
mp-1265,MgO,True,False,4.4292,-3.03830917,[7.7],,10.1016/j.matpr.2020.05.338,Oxides
mp-1265,MgO,True,False,4.4292,-3.03830917,[3.16],,10.1016/j.matpr.2020.05.518,Oxides
mp-1265,MgO,True,False,4.4292,-3.03830917,[7.7],,10.1016/j.optmat.2004.01.013,Oxides
mp-1265,MgO,True,False,4.4292,-3.03830917,[7.8],,10.1016/j.optmat.2012.10.028,Oxides
mp-1265,MgO,True,False,4.4292,-3.03830917,[7.8],,10.1016/j.optmat.2015.03.046,Oxides
mp-1265,MgO,True,False,4.4292,-3.03830917,[7.8],,10.1016/j.optmat.2016.02.030,Oxides
mp-1265,MgO,True,False,4.4292,-3.03830917,[7.8],,10.1016/j.optmat.2017.08.025,Oxides
mp-1265,MgO,True,False,4.4292,-3.03830917,[7.8],,10.1016/j.optmat.2019.01.073,Oxides
mp-1265,MgO,True,False,4.4292,-3.03830917,[3.43],,10.1016/j.physb.2005.05.019,Oxides
mp-1265,MgO,True,False,4.4292,-3.03830917,[7.8],,10.1016/j.physb.2005.12.101,Oxides
mp-1265,MgO,True,False,4.4292,-3.03830917,[7.7],,10.1016/j.physb.2007.08.203,Oxides
mp-1265,MgO,True,False,4.4292,-3.03830917,[7.7],,10.1016/j.physb.2012.04.052,Oxides
mp-1265,MgO,True,False,4.4292,-3.03830917,[3.1],,10.1016/j.physb.2012.09.050,Oxides
mp-1265,MgO,True,False,4.4292,-3.03830917,[7.0],,10.1016/j.physb.2014.05.012,Oxides
mp-1265,MgO,True,False,4.4292,-3.03830917,[3.7],,10.1016/j.physb.2014.05.012,Oxides
mp-1265,MgO,True,False,4.4292,-3.03830917,[7.83],∼5,10.1016/j.physb.2015.08.032,Oxides
mp-1265,MgO,True,False,4.4292,-3.03830917,[7.8],,10.1016/j.physb.2018.02.041,Oxides
mp-1265,MgO,True,False,4.4292,-3.03830917,[3.84],,10.1016/j.physb.2019.06.020,Oxides
mp-1265,MgO,True,False,4.4292,-3.03830917,[7.5],,10.1016/j.rinp.2017.07.047,Oxides
mp-1265,MgO,True,False,4.4292,-3.03830917,[7.77],,10.1016/j.rinp.2019.02.054,Oxides
mp-1265,MgO,True,False,4.4292,-3.03830917,[7.8],,10.1016/j.rinp.2019.102514,Oxides
mp-1265,MgO,True,False,4.4292,-3.03830917,[7.7],,10.1016/j.rinp.2020.102976,Oxides
mp-1265,MgO,True,False,4.4292,-3.03830917,[2.9],,10.1016/j.rinp.2020.103013,Oxides
mp-1265,MgO,True,False,4.4292,-3.03830917,[2.91],,10.1016/j.rinp.2020.103013,Oxides
mp-1265,MgO,True,False,4.4292,-3.03830917,[5.0],,10.1016/j.tsf.2003.07.017,Oxides
mp-1265,MgO,True,False,4.4292,-3.03830917,[7.8],,10.1016/j.tsf.2003.09.016,Oxides
mp-1265,MgO,True,False,4.4292,-3.03830917,[7.7],,10.1016/j.tsf.2005.07.066,Oxides
mp-1265,MgO,True,False,4.4292,-3.03830917,[2.5],,10.1016/j.tsf.2005.11.044,Oxides
mp-1265,MgO,True,False,4.4292,-3.03830917,[7.8],,10.1016/j.tsf.2005.11.044,Oxides
mp-1265,MgO,True,False,4.4292,-3.03830917,[7.8],,10.1016/j.tsf.2006.10.022,Oxides
mp-1265,MgO,True,False,4.4292,-3.03830917,[7.8],,10.1016/j.tsf.2007.03.014,Oxides
mp-1265,MgO,True,False,4.4292,-3.03830917,[2.92],,10.1016/j.tsf.2008.02.054,Oxides
mp-1265,MgO,True,False,4.4292,-3.03830917,[7.8],,10.1016/j.tsf.2009.01.184,Oxides
mp-1265,MgO,True,False,4.4292,-3.03830917,[6.7],,10.1016/j.tsf.2009.09.020,Oxides
mp-1265,MgO,True,False,4.4292,-3.03830917,[6.67],,10.1016/j.tsf.2009.09.020,Oxides
mp-1265,MgO,True,False,4.4292,-3.03830917,[7.7],,10.1016/j.tsf.2011.03.030,Oxides
mp-1265,MgO,True,False,4.4292,-3.03830917,[7.8],,10.1016/j.tsf.2011.04.005,Oxides
mp-1265,MgO,True,False,4.4292,-3.03830917,[7.83],,10.1016/j.tsf.2011.10.133,Oxides
mp-1265,MgO,True,False,4.4292,-3.03830917,[7.8],,10.1016/j.tsf.2012.02.065,Oxides
mp-1265,MgO,True,False,4.4292,-3.03830917,[7.8],,10.1016/j.tsf.2012.06.078,Oxides
mp-1265,MgO,True,False,4.4292,-3.03830917,[7.8],,10.1016/j.tsf.2013.05.090,Oxides
mp-1265,MgO,True,False,4.4292,-3.03830917,[7.0],,10.1016/j.tsf.2014.02.018,Oxides
mp-1265,MgO,True,False,4.4292,-3.03830917,[7.8],,10.1016/j.tsf.2018.02.025,Oxides
mp-1265,MgO,True,False,4.4292,-3.03830917,[7.0],,10.1016/j.tsf.2018.03.014,Oxides
mp-1265,MgO,True,False,4.4292,-3.03830917,[7.8],,10.1016/j.tsf.2019.04.046,Oxides
mp-1265,MgO,True,False,4.4292,-3.03830917,[7.8],,10.1016/j.tsf.2019.137556,Oxides
mp-1265,MgO,True,False,4.4292,-3.03830917,[7.3],,10.1016/S0040-6090(00)01184-6,Oxides
mp-1265,MgO,True,False,4.4292,-3.03830917,[8.0],,10.1016/S0040-6090(02)00679-X,Oxides
mp-1265,MgO,True,False,4.4292,-3.03830917,[8.0],,10.1016/0168-583X(96)00008-0,Oxides
mp-1265,MgO,True,False,4.4292,-3.03830917,[7.2],,10.1016/j.actamat.2011.11.012,Oxides
mp-1265,MgO,True,False,4.4292,-3.03830917,[3.0],,10.1016/j.actamat.2011.11.012,Oxides
mp-1265,MgO,True,False,4.4292,-3.03830917,[3.76],,10.1016/j.actamat.2017.03.033,Oxides
mp-1265,MgO,True,False,4.4292,-3.03830917,[3.4],,10.1016/j.apsusc.2008.11.039,Oxides
mp-1265,MgO,True,False,4.4292,-3.03830917,[3.38],,10.1016/j.apsusc.2010.03.010,Oxides
mp-1265,MgO,True,False,4.4292,-3.03830917,[3.43],,10.1016/j.apsusc.2010.03.010,Oxides
mp-1265,MgO,True,False,4.4292,-3.03830917,[10.6],,10.1016/j.apsusc.2017.10.068,Oxides
mp-1265,MgO,True,False,4.4292,-3.03830917,[7.8],,10.1016/j.ceramint.2013.07.130,Oxides
mp-1265,MgO,True,False,4.4292,-3.03830917,[4.35],,10.1016/j.commatsci.2016.04.021,Oxides
mp-1265,MgO,True,False,4.4292,-3.03830917,[3.4],,10.1016/j.jcrysgro.2004.04.086,Oxides
mp-1265,MgO,True,False,4.4292,-3.03830917,[7.8],,10.1016/j.jcrysgro.2011.12.090,Oxides
mp-1265,MgO,True,False,4.4292,-3.03830917,[5.13],,10.1016/j.jcrysgro.2011.12.090,Oxides
mp-1265,MgO,True,False,4.4292,-3.03830917,[7.8],,10.1016/j.jlumin.2014.12.016,Oxides
mp-1265,MgO,True,False,4.4292,-3.03830917,[7.8],,10.1016/j.mssp.2015.01.001,Oxides
mp-1265,MgO,True,False,4.4292,-3.03830917,[6.0],,10.1039/b313560h,Oxides
mp-1265,MgO,True,False,4.4292,-3.03830917,[7.8],,10.1039/b927408a,Oxides
mp-1265,MgO,True,False,4.4292,-3.03830917,[7.7],,10.1039/c1nr10352k,Oxides
mp-1265,MgO,True,False,4.4292,-3.03830917,[7.8],,10.1039/c2jm35087d,Oxides
mp-1265,MgO,True,False,4.4292,-3.03830917,[5.4],,10.1039/c2ta00816e,Oxides
mp-1265,MgO,True,False,4.4292,-3.03830917,[3.0],,10.1039/c2ta00816e,Oxides
mp-1265,MgO,True,False,4.4292,-3.03830917,[7.8],,10.1039/c3cp53590h,Oxides
mp-1265,MgO,True,False,4.4292,-3.03830917,[3.5],,10.1039/c3ta15435a,Oxides
mp-1265,MgO,True,False,4.4292,-3.03830917,[0.16],,10.1039/c4cy00245h,Oxides
mp-1265,MgO,True,False,4.4292,-3.03830917,[7.8],,10.1039/c4ta03684k,Oxides
mp-1265,MgO,True,False,4.4292,-3.03830917,[8.0],,10.1039/c4ta03684k,Oxides
mp-1265,MgO,True,False,4.4292,-3.03830917,[7.8],,10.1039/c5cp00674k,Oxides
mp-1265,MgO,True,False,4.4292,-3.03830917,[0.036],,10.1039/c6nr08586e,Oxides
mp-1265,MgO,True,False,4.4292,-3.03830917,[0.04],,10.1039/c6nr08586e,Oxides
mp-1265,MgO,True,False,4.4292,-3.03830917,[0.046],,10.1039/c6nr08586e,Oxides
mp-1265,MgO,True,False,4.4292,-3.03830917,[0.074],,10.1039/c6nr08586e,Oxides
mp-1265,MgO,True,False,4.4292,-3.03830917,[0.041],,10.1039/c6nr08586e,Oxides
mp-1265,MgO,True,False,4.4292,-3.03830917,[7.8],,10.1039/c6nr08586e,Oxides
mp-1265,MgO,True,False,4.4292,-3.03830917,[3.22],,10.1039/c6nr08586e,Oxides
mp-1265,MgO,True,False,4.4292,-3.03830917,[7.6],,10.1039/c6ta08939a,Oxides
mp-1265,MgO,True,False,4.4292,-3.03830917,[0.68],,10.1039/c6tc04264c,Oxides
mp-1265,MgO,True,False,4.4292,-3.03830917,[5.25],,10.1039/c8qm00145f,Oxides
mp-1265,MgO,True,False,4.4292,-3.03830917,[4.8],,10.1039/c8qm00145f,Oxides
mp-1265,MgO,True,False,4.4292,-3.03830917,[5.23],,10.1039/c8ra10385b,Oxides
mp-1265,MgO,True,False,4.4292,-3.03830917,[7.8],,10.1039/c9ce01717h,Oxides
mp-1265,MgO,True,False,4.4292,-3.03830917,[8.0],,10.1039/c9nr07876b,Oxides
mp-1265,MgO,True,False,4.4292,-3.03830917,[7.3],,10.1039/c9ta10473a,Oxides
mp-1265,MgO,True,False,4.4292,-3.03830917,[3.6],,10.1039/d0ra05030j,Oxides
mp-1265,MgO,True,False,4.4292,-3.03830917,[3.481],,10.1039/d0ra05030j,Oxides
mp-1265,MgO,True,False,4.4292,-3.03830917,[7.8],,10.1039/b608719a,Oxides
mp-1265,MgO,True,False,4.4292,-3.03830917,[7.8],,10.1039/b712952a,Oxides
mp-1265,MgO,True,False,4.4292,-3.03830917,[7.7],,10.1039/b917817a,Oxides
mp-1265,MgO,True,False,4.4292,-3.03830917,[4.82],,10.1039/c2cp23534j,Oxides
mp-1265,MgO,True,False,4.4292,-3.03830917,[0.72],,10.1039/c2cp43492j,Oxides
mp-1265,MgO,True,False,4.4292,-3.03830917,[9.82],,10.1039/c3cp50678a,Oxides
mp-1265,MgO,True,False,4.4292,-3.03830917,[7.8],,10.1039/c3cp50979f,Oxides
mp-1265,MgO,True,False,4.4292,-3.03830917,[7.8],,10.1039/c3nr03019a,Oxides
mp-1265,MgO,True,False,4.4292,-3.03830917,[7.8],,10.1039/c4ce01788a,Oxides
mp-1265,MgO,True,False,4.4292,-3.03830917,[7.8],,10.1039/c4cp03080j,Oxides
mp-1265,MgO,True,False,4.4292,-3.03830917,[7.8],,10.1039/c4ra06763k,Oxides
mp-1265,MgO,True,False,4.4292,-3.03830917,[3.93],,10.1039/c4ra06763k,Oxides
mp-1265,MgO,True,False,4.4292,-3.03830917,[7.3],,10.1039/c5nr05036g,Oxides
mp-1265,MgO,True,False,4.4292,-3.03830917,[7.8],,10.1039/c5ra21150f,Oxides
mp-1265,MgO,True,False,4.4292,-3.03830917,[3.44],700,10.1039/c5ra21150f,Oxides
mp-1265,MgO,True,False,4.4292,-3.03830917,[5.8],,10.1039/c5tc03669k,Oxides
mp-1265,MgO,True,False,4.4292,-3.03830917,[4.2],,10.1039/c6cp04622c,Oxides
mp-1265,MgO,True,False,4.4292,-3.03830917,[7.83],,10.1039/c6cp04622c,Oxides
mp-1265,MgO,True,False,4.4292,-3.03830917,[7.8],,10.1039/c6ra21065a,Oxides
mp-1265,MgO,True,False,4.4292,-3.03830917,[7.8],,10.1039/c8cy00431e,Oxides
mp-1265,MgO,True,False,4.4292,-3.03830917,[7.7],,10.1039/c8ra00816g,Oxides
mp-1265,MgO,True,False,4.4292,-3.03830917,[7.78],,10.1039/d0cp04069j,Oxides
mp-1265,MgO,True,False,4.4292,-3.03830917,[7.2],,10.1039/c2ra23171a,Oxides
mp-1265,MgO,True,False,4.4292,-3.03830917,[7.8],,10.1039/c4ra11180j,Oxides
mp-1265,MgO,True,False,4.4292,-3.03830917,[7.2],,10.1039/c5ra15132e,Oxides
mp-1265,MgO,True,False,4.4292,-3.03830917,[7.7],,10.1039/c6ra18150c,Oxides
mp-1265,MgO,True,False,4.4292,-3.03830917,[7.8],,10.1039/c3ta01608k,Oxides
mp-1265,MgO,True,False,4.4292,-3.03830917,[7.8],,10.1039/c7cp01776f,Oxides
mp-1265,MgO,True,False,4.4292,-3.03830917,[7.8],,10.1039/c8nr00658j,Oxides
mp-1265,MgO,True,False,4.4292,-3.03830917,[2.0],,10.1039/c8nr00658j,Oxides
mp-1265,MgO,True,False,4.4292,-3.03830917,[7.8],2800,10.1039/c8ra01851k,Oxides
mp-1265,MgO,True,False,4.4292,-3.03830917,[4.57],,10.1039/c9tc06211d,Oxides
mp-1265,MgO,True,False,4.4292,-3.03830917,[7.7],,10.1007/s00339-013-7664-9,Oxides
mp-1265,MgO,True,False,4.4292,-3.03830917,[7.8],,10.1007/s10854-008-9599-z,Oxides
mp-1265,MgO,True,False,4.4292,-3.03830917,[7.8],,10.1007/s10854-015-3713-9,Oxides
mp-1265,MgO,True,False,4.4292,-3.03830917,[7.7],,10.1007/s10854-016-4862-1,Oxides
mp-1265,MgO,True,False,4.4292,-3.03830917,[3.46],,10.1007/s10854-019-00690-w,Oxides
mp-1265,MgO,True,False,4.4292,-3.03830917,[4.39],,10.1007/s10948-016-3972-6,Oxides
mp-1265,MgO,True,False,4.4292,-3.03830917,[2.51],,10.1007/s10948-016-3972-6,Oxides
mp-1265,MgO,True,False,4.4292,-3.03830917,[7.8],,10.1007/s11144-019-01677-8,Oxides
mp-1265,MgO,True,False,4.4292,-3.03830917,[7.8],,10.1007/s11663-015-0560-2,Oxides
mp-1265,MgO,True,False,4.4292,-3.03830917,[7.8],,10.1038/s41598-020-73849-9,Oxides
mp-1265,MgO,True,False,4.4292,-3.03830917,[4.2],,10.1038/srep07277,Oxides
mp-1265,MgO,True,False,4.4292,-3.03830917,[4.8],,10.1038/srep31230,Oxides
mp-1265,MgO,True,False,4.4292,-3.03830917,[1.9],,10.1038/srep31230,Oxides
mp-1265,MgO,True,False,4.4292,-3.03830917,[4.2],,10.1038/srep31230,Oxides
mp-1265,MgO,True,False,4.4292,-3.03830917,[3.0],,10.1038/srep31230,Oxides
mp-1265,MgO,True,False,4.4292,-3.03830917,[2.0],,10.1038/srep31230,Oxides
mp-1265,MgO,True,False,4.4292,-3.03830917,[3.5],,10.1038/srep31230,Oxides
mp-1265,MgO,True,False,4.4292,-3.03830917,[0.03],,10.1038/srep36849,Oxides
mp-1265,MgO,True,False,4.4292,-3.03830917,[4.0],,10.1038/srep45594,Oxides
mp-1265,MgO,True,False,4.4292,-3.03830917,[3.0],,10.1038/srep45594,Oxides
mp-1265,MgO,True,False,4.4292,-3.03830917,[0.6],,10.1038/srep45594,Oxides
mp-1265,MgO,True,False,4.4292,-3.03830917,[4.27],,10.1134/S0022476616010248,Oxides
mp-1265,MgO,True,False,4.4292,-3.03830917,[5.6],,10.1007/s00339-013-8169-2,Oxides
mp-1265,MgO,True,False,4.4292,-3.03830917,[7.2],,10.1007/s00339-016-0440-x,Oxides
mp-1265,MgO,True,False,4.4292,-3.03830917,[5.2],,10.1007/s10904-019-01362-2,Oxides
mp-1265,MgO,True,False,4.4292,-3.03830917,[6.2],,10.1007/s10948-012-1991-5,Oxides
mp-1265,MgO,True,False,4.4292,-3.03830917,[3.23],,10.1007/s10971-014-3267-y,Oxides
mp-1265,MgO,True,False,4.4292,-3.03830917,[4.42],,10.1007/s11164-012-0515-z,Oxides
mp-1265,MgO,True,False,4.4292,-3.03830917,[4.36],,10.1007/s13204-018-0859-9,Oxides
mp-1265,MgO,True,False,4.4292,-3.03830917,[4.5],,10.1007/s13204-018-0859-9,Oxides
mp-1265,MgO,True,False,4.4292,-3.03830917,[7.8],,10.1007/s40195-016-0385-2,Oxides
mp-1265,MgO,True,False,4.4292,-3.03830917,[3.2],,10.1038/s41563-018-0240-0,Oxides
mp-1265,MgO,True,False,4.4292,-3.03830917,[3.0],,10.1038/s41563-018-0240-0,Oxides
mp-1265,MgO,True,False,4.4292,-3.03830917,[6.5],,10.1038/s41563-018-0240-0,Oxides
mp-1265,MgO,True,False,4.4292,-3.03830917,[4.43],,10.1038/s41598-019-49011-5,Oxides
mp-1265,MgO,True,False,4.4292,-3.03830917,[7.9],,10.1007/s00339-016-0475-z,Oxides
mp-1265,MgO,True,False,4.4292,-3.03830917,[7.8],,10.1007/s00604-017-2348-3,Oxides
mp-1265,MgO,True,False,4.4292,-3.03830917,[8.0],,10.1007/s10853-006-1094-4,Oxides
mp-1265,MgO,True,False,4.4292,-3.03830917,[3.25],,10.1007/s10853-009-3444-5,Oxides
mp-1265,MgO,True,False,4.4292,-3.03830917,[4.1],,10.1007/s10853-015-9393-2,Oxides
mp-1265,MgO,True,False,4.4292,-3.03830917,[7.7],,10.1007/s10854-013-1399-4,Oxides
mp-1265,MgO,True,False,4.4292,-3.03830917,[7.8],,10.1007/s10854-018-9427-z,Oxides
mp-1265,MgO,True,False,4.4292,-3.03830917,[7.49],,10.1007/s10854-019-00700-x,Oxides
mp-1265,MgO,True,False,4.4292,-3.03830917,[8.7],,10.1007/s10948-017-4041-5,Oxides
mp-1265,MgO,True,False,4.4292,-3.03830917,[4.1758],,10.1007/s13204-020-01414-x,Oxides
mp-1265,MgO,True,False,4.4292,-3.03830917,[4.938],,10.1007/s13204-020-01414-x,Oxides
mp-1265,MgO,True,False,4.4292,-3.03830917,[3.0],,10.1007/s13204-020-01414-x,Oxides
mp-1265,MgO,True,False,4.4292,-3.03830917,[4.1804],,10.1007/s13204-020-01414-x,Oxides
mp-1265,MgO,True,False,4.4292,-3.03830917,[4.1758],30 ± 2,10.1007/s13204-020-01414-x,Oxides
mp-1265,MgO,True,False,4.4292,-3.03830917,[5.93],,10.1007/s13204-020-01414-x,Oxides
mp-1265,MgO,True,False,4.4292,-3.03830917,[4.1],,10.1007/s13204-020-01414-x,Oxides