mpids,formula,is_stable,theoretical,band_gap,formation_energy_per_atom,Value,Temperature_raw_value,DOI,compound_type
mp-643,ThO2,True,False,4.4187,-4.36779017333333,[6.0],,10.1039/c3dt32536a,Double anions
mp-643,ThO2,True,False,4.4187,-4.36779017333333,[4.82],,10.1039/c4cp03660c,Double anions
mp-643,ThO2,True,False,4.4187,-4.36779017333333,[4.38],,10.1039/c8cp00240a,Double anions
mp-643,ThO2,True,False,4.4187,-4.36779017333333,[5.75],,10.1021/jacs.5b03986,Double anions
mp-643,ThO2,True,False,4.4187,-4.36779017333333,[3.5],,10.1021/jacs.5b03986,Double anions
mp-643,ThO2,True,False,4.4187,-4.36779017333333,[2.56],,10.1021/jacs.5b03986,Double anions
mp-643,ThO2,True,False,4.4187,-4.36779017333333,[3.3],,10.1021/jacs.5b03986,Double anions
mp-643,ThO2,True,False,4.4187,-4.36779017333333,[5.02],,10.1021/jacs.5b03986,Double anions
mp-643,ThO2,True,False,4.4187,-4.36779017333333,[3.2],,10.1021/jacs.5b03986,Double anions
mp-17171,LaF3,False,True,4.9199,-4.365745196041666,[10.3],300,10.1016/j.optmat.2015.06.020,Halides
mp-17171,LaF3,False,True,4.9199,-4.365745196041666,[10.77],,10.1016/j.commatsci.2018.07.020,Halides
mp-17171,LaF3,False,True,4.9199,-4.365745196041666,[5.3],,10.1007/s12540-014-1012-2,Halides
mp-17171,LaF3,False,True,4.9199,-4.365745196041666,[10.3],,10.1007/s13204-014-0358-6,Halides
mp-17171,LaF3,False,True,4.9199,-4.365745196041666,[10.3],,10.1007/s13204-014-0391-5,Halides
mp-17171,LaF3,False,True,4.9199,-4.365745196041666,[6.6],,10.1021/jacs.5b03986,Halides
mp-3637,YOF,True,False,4.9203,-4.214884004166669,[7.2],,10.1016/j.optmat.2019.109331,Halides
mp-972965,GdF3,True,True,2.862199999999999,-4.158415573124998,[7.443],,10.1039/c3cp51816g,Halides
mp-1427,Lu2O3,True,False,4.021100000000001,-4.123783570916665,[6.0],8,10.1016/j.optmat.2020.109730,Double anions
mp-1427,Lu2O3,True,False,4.021100000000001,-4.123783570916665,[5.95],,10.1016/j.optmat.2020.109730,Double anions
mp-1427,Lu2O3,True,False,4.021100000000001,-4.123783570916665,[3.94],,10.1021/jacs.5b03986,Double anions
mp-1767,Tm2O3,True,False,3.6932,-4.090072903500003,[5.76],,10.1016/S1002-0721(12)60029-5,Double anions
mp-1767,Tm2O3,True,False,3.6932,-4.090072903500003,[6.5],,10.1039/c5nr03002a,Double anions
mp-1767,Tm2O3,True,False,3.6932,-4.090072903500003,[5.76],,10.1007/s10854-014-2464-3,Double anions
mp-679,Er2O3,True,False,3.9629,-4.057094096999998,[5.3],,10.1016/j.optmat.2017.04.007,Double anions
mp-679,Er2O3,True,False,3.9629,-4.057094096999998,[5.506],,10.1039/c6cp01747a,Double anions
mp-679,Er2O3,True,False,3.9629,-4.057094096999998,[7.6],,10.1039/c3tc30401a,Double anions
mp-679,Er2O3,True,False,3.9629,-4.057094096999998,[3.8],,10.1007/s10854-019-01151-0,Double anions
mp-679,Er2O3,True,False,3.9629,-4.057094096999998,[2.3317],,10.1007/s10854-019-02213-z,Double anions
mp-679,Er2O3,True,False,3.9629,-4.057094096999998,[5.3],,10.1007/s00339-013-7870-5,Double anions
mp-679,Er2O3,True,False,3.9629,-4.057094096999998,[5.7],,10.1007/s00339-013-7870-5,Double anions
mp-679,Er2O3,True,False,3.9629,-4.057094096999998,[5.86],,10.1007/s00339-013-7870-5,Double anions
mp-679,Er2O3,True,False,3.9629,-4.057094096999998,[7.6],,10.1007/s10854-019-01638-w,Double anions
mp-679,Er2O3,True,False,3.9629,-4.057094096999998,[5.2],,10.1007/s10854-020-03035-0,Double anions
mp-679,Er2O3,True,False,3.9629,-4.057094096999998,[4.76],,10.1007/s10854-020-03035-0,Double anions
mp-679,Er2O3,True,False,3.9629,-4.057094096999998,[3.26],,10.1021/jacs.5b03986,Double anions
mp-679,Er2O3,True,False,3.9629,-4.057094096999998,[1.4],,10.1021/jacs.5b03986,Double anions
mp-812,Ho2O3,True,False,3.9457999999999993,-4.027559444749998,[2.84],,10.1021/jacs.5b03986,Double anions
mp-352,HfO2,True,False,4.0165,-4.019811040833332,[5.0],,10.1016/j.optmat.2013.05.017,Double anions
mp-352,HfO2,True,False,4.0165,-4.019811040833332,[5.6],,10.1016/j.optmat.2013.05.017,Double anions
mp-352,HfO2,True,False,4.0165,-4.019811040833332,[4.19],,10.1016/j.optmat.2014.06.002,Double anions
mp-352,HfO2,True,False,4.0165,-4.019811040833332,[5.63],,10.1016/j.optmat.2014.06.002,Double anions
mp-352,HfO2,True,False,4.0165,-4.019811040833332,[5.72],,10.1016/j.optmat.2014.06.002,Double anions
mp-352,HfO2,True,False,4.0165,-4.019811040833332,[5.7],,10.1016/j.optmat.2014.08.005,Double anions
mp-352,HfO2,True,False,4.0165,-4.019811040833332,[0.03],25–700,10.1016/j.optmat.2014.08.005,Double anions
mp-352,HfO2,True,False,4.0165,-4.019811040833332,[5.0],,10.1016/j.physb.2009.10.059,Double anions
mp-352,HfO2,True,False,4.0165,-4.019811040833332,[5.7],,10.1016/j.physb.2011.08.079,Double anions
mp-352,HfO2,True,False,4.0165,-4.019811040833332,[5.8],,10.1016/j.physb.2014.03.087,Double anions
mp-352,HfO2,True,False,4.0165,-4.019811040833332,[5.7],,10.1016/j.physb.2015.12.007,Double anions
mp-352,HfO2,True,False,4.0165,-4.019811040833332,[3.86],,10.1016/j.physb.2019.02.001,Double anions
mp-352,HfO2,True,False,4.0165,-4.019811040833332,[5.5],,10.1016/j.tsf.2004.09.012,Double anions
mp-352,HfO2,True,False,4.0165,-4.019811040833332,[5.68],,10.1016/j.tsf.2005.12.286,Double anions
mp-352,HfO2,True,False,4.0165,-4.019811040833332,[5.7],,10.1016/j.tsf.2006.11.070,Double anions
mp-352,HfO2,True,False,4.0165,-4.019811040833332,[5.68],,10.1016/j.tsf.2007.03.076,Double anions
mp-352,HfO2,True,False,4.0165,-4.019811040833332,[5.68],,10.1016/j.tsf.2007.03.101,Double anions
mp-352,HfO2,True,False,4.0165,-4.019811040833332,[5.68],,10.1016/j.tsf.2008.05.002,Double anions
mp-352,HfO2,True,False,4.0165,-4.019811040833332,[5.5],,10.1016/j.tsf.2010.02.034,Double anions
mp-352,HfO2,True,False,4.0165,-4.019811040833332,[3.75],,10.1016/j.tsf.2010.03.098,Double anions
mp-352,HfO2,True,False,4.0165,-4.019811040833332,[5.6],,10.1016/j.tsf.2010.03.106,Double anions
mp-352,HfO2,True,False,4.0165,-4.019811040833332,[5.9],,10.1016/j.tsf.2010.04.004,Double anions
mp-352,HfO2,True,False,4.0165,-4.019811040833332,[5.65],,10.1016/j.tsf.2010.04.012,Double anions
mp-352,HfO2,True,False,4.0165,-4.019811040833332,[5.6],,10.1016/j.tsf.2010.11.080,Double anions
mp-352,HfO2,True,False,4.0165,-4.019811040833332,[5.1],,10.1016/j.tsf.2010.11.080,Double anions
mp-352,HfO2,True,False,4.0165,-4.019811040833332,[6.0],,10.1016/j.tsf.2010.12.080,Double anions
mp-352,HfO2,True,False,4.0165,-4.019811040833332,[5.7],,10.1016/j.tsf.2010.12.210,Double anions
mp-352,HfO2,True,False,4.0165,-4.019811040833332,[5.6],,10.1016/j.tsf.2011.02.008,Double anions
mp-352,HfO2,True,False,4.0165,-4.019811040833332,[5.7],,10.1016/j.tsf.2012.07.111,Double anions
mp-352,HfO2,True,False,4.0165,-4.019811040833332,[5.7],,10.1016/j.tsf.2014.04.006,Double anions
mp-352,HfO2,True,False,4.0165,-4.019811040833332,[5.0],475,10.1016/j.tsf.2014.08.025,Double anions
mp-352,HfO2,True,False,4.0165,-4.019811040833332,[5.55],,10.1016/j.tsf.2015.04.014,Double anions
mp-352,HfO2,True,False,4.0165,-4.019811040833332,[5.8],,10.1016/j.tsf.2015.07.035,Double anions
mp-352,HfO2,True,False,4.0165,-4.019811040833332,[6.8],,10.1016/j.tsf.2016.01.007,Double anions
mp-352,HfO2,True,False,4.0165,-4.019811040833332,[5.7],,10.1016/j.tsf.2016.11.053,Double anions
mp-352,HfO2,True,False,4.0165,-4.019811040833332,[3.68],,10.1016/j.tsf.2017.09.014,Double anions
mp-352,HfO2,True,False,4.0165,-4.019811040833332,[5.95],600,10.1016/j.tsf.2017.10.020,Double anions
mp-352,HfO2,True,False,4.0165,-4.019811040833332,[5.5],,10.1016/j.tsf.2018.03.083,Double anions
mp-352,HfO2,True,False,4.0165,-4.019811040833332,[5.8],,10.1016/j.tsf.2018.07.009,Double anions
mp-352,HfO2,True,False,4.0165,-4.019811040833332,[5.8],,10.1016/j.tsf.2019.03.009,Double anions
mp-352,HfO2,True,False,4.0165,-4.019811040833332,[6.5],,10.1016/S0040-6090(01)01184-1,Double anions
mp-352,HfO2,True,False,4.0165,-4.019811040833332,[5.68],,10.1016/S0040-6090(02)00771-X,Double anions
mp-352,HfO2,True,False,4.0165,-4.019811040833332,[4.0],,10.1016/S0040-6090(99)00690-2,Double anions
mp-352,HfO2,True,False,4.0165,-4.019811040833332,[5.4],,10.1016/j.matlet.2016.08.026,Double anions
mp-352,HfO2,True,False,4.0165,-4.019811040833332,[6.0],,10.1016/j.mee.2010.08.023,Double anions
mp-352,HfO2,True,False,4.0165,-4.019811040833332,[5.9],,10.1016/j.mee.2010.08.023,Double anions
mp-352,HfO2,True,False,4.0165,-4.019811040833332,[1.0],,10.1016/j.mee.2010.08.023,Double anions
mp-352,HfO2,True,False,4.0165,-4.019811040833332,[6.0],,10.1039/b927408a,Double anions
mp-352,HfO2,True,False,4.0165,-4.019811040833332,[0.13],300,10.1039/c2cs35335k,Double anions
mp-352,HfO2,True,False,4.0165,-4.019811040833332,[5.8],,10.1039/c5mh00288e,Double anions
mp-352,HfO2,True,False,4.0165,-4.019811040833332,[4.9],,10.1039/c5nr08065g,Double anions
mp-352,HfO2,True,False,4.0165,-4.019811040833332,[5.8],,10.1039/c5tc00076a,Double anions
mp-352,HfO2,True,False,4.0165,-4.019811040833332,[5.37],,10.1039/c5tc03307a,Double anions
mp-352,HfO2,True,False,4.0165,-4.019811040833332,[3.18],,10.1039/c6ra13776h,Double anions
mp-352,HfO2,True,False,4.0165,-4.019811040833332,[5.7],,10.1039/c8cp04743j,Double anions
mp-352,HfO2,True,False,4.0165,-4.019811040833332,[5.8],,10.1039/d0ra01073a,Double anions
mp-352,HfO2,True,False,4.0165,-4.019811040833332,[5.93],,10.1039/d0ra01073a,Double anions
mp-352,HfO2,True,False,4.0165,-4.019811040833332,[5.8],,10.1039/c2tc00385f,Double anions
mp-352,HfO2,True,False,4.0165,-4.019811040833332,[4.91],,10.1039/c6ra10644g,Double anions
mp-352,HfO2,True,False,4.0165,-4.019811040833332,[8.0],,10.1039/c8nr06652c,Double anions
mp-352,HfO2,True,False,4.0165,-4.019811040833332,[5.03],,10.1039/c9cp01786k,Double anions
mp-352,HfO2,True,False,4.0165,-4.019811040833332,[0.25],,10.1039/c9cp01786k,Double anions
mp-352,HfO2,True,False,4.0165,-4.019811040833332,[0.023],,10.1039/c8nr04416c,Double anions
mp-352,HfO2,True,False,4.0165,-4.019811040833332,[5.68],,10.1039/b917604g,Double anions
mp-352,HfO2,True,False,4.0165,-4.019811040833332,[5.68],,10.1039/c1jm11763g,Double anions
mp-352,HfO2,True,False,4.0165,-4.019811040833332,[5.8],,10.1039/c8ta11945g,Double anions
mp-352,HfO2,True,False,4.0165,-4.019811040833332,[5.68],,10.1039/b821502b,Double anions
mp-352,HfO2,True,False,4.0165,-4.019811040833332,[5.6],,10.1007/s00339-016-0197-2,Double anions
mp-352,HfO2,True,False,4.0165,-4.019811040833332,[5.7],,10.1007/s00339-018-2366-y,Double anions
mp-352,HfO2,True,False,4.0165,-4.019811040833332,[6.0],,10.1007/s10825-015-0713-1,Double anions
mp-352,HfO2,True,False,4.0165,-4.019811040833332,[5.6],,10.1007/s10825-017-1085-5,Double anions
mp-352,HfO2,True,False,4.0165,-4.019811040833332,[5.7],,10.1007/s10853-007-1584-z,Double anions
mp-352,HfO2,True,False,4.0165,-4.019811040833332,[5.7],,10.1007/s10854-013-1565-8,Double anions
mp-352,HfO2,True,False,4.0165,-4.019811040833332,[6.0],,10.1007/s11661-010-0422-0,Double anions
mp-352,HfO2,True,False,4.0165,-4.019811040833332,[5.7],,10.1007/s10853-012-6568-y,Double anions
mp-352,HfO2,True,False,4.0165,-4.019811040833332,[3.37],,10.1007/s10854-018-0349-6,Double anions
mp-352,HfO2,True,False,4.0165,-4.019811040833332,[5.7],,10.1038/nnano.2010.279,Double anions
mp-352,HfO2,True,False,4.0165,-4.019811040833332,[4.38],,10.1038/srep08494,Double anions
mp-352,HfO2,True,False,4.0165,-4.019811040833332,[1.8],,10.1134/S1063782620050036,Double anions
mp-352,HfO2,True,False,4.0165,-4.019811040833332,[5.3],,10.1134/S1063782620050036,Double anions
mp-352,HfO2,True,False,4.0165,-4.019811040833332,[6.04],,10.1186/s11671-017-2104-y,Double anions
mp-352,HfO2,True,False,4.0165,-4.019811040833332,[5.7],,10.1007/s00339-016-0569-7,Double anions
mp-352,HfO2,True,False,4.0165,-4.019811040833332,[5.8],,10.1007/s10854-020-02879-w,Double anions
mp-352,HfO2,True,False,4.0165,-4.019811040833332,[5.67],,10.1007/s10971-018-4829-1,Double anions
mp-352,HfO2,True,False,4.0165,-4.019811040833332,[4.45],,10.1007/s11082-019-2055-x,Double anions
mp-352,HfO2,True,False,4.0165,-4.019811040833332,[5.88],,10.1007/s12598-014-0348-6,Double anions
mp-352,HfO2,True,False,4.0165,-4.019811040833332,[6.0],,10.1007/s00339-016-0326-y,Double anions
mp-352,HfO2,True,False,4.0165,-4.019811040833332,[5.8],,10.1007/s00339-016-0326-y,Double anions
mp-352,HfO2,True,False,4.0165,-4.019811040833332,[1.5],,10.1007/s10825-017-1077-5,Double anions
mp-352,HfO2,True,False,4.0165,-4.019811040833332,[5.99],,10.1007/s10854-015-2926-2,Double anions
mp-352,HfO2,True,False,4.0165,-4.019811040833332,[5.7],,10.1007/s10854-018-8757-1,Double anions
mp-352,HfO2,True,False,4.0165,-4.019811040833332,[5.7],,10.1007/s00339-015-9040-4,Double anions
mp-352,HfO2,True,False,4.0165,-4.019811040833332,[3.2],,10.1007/s00339-019-2824-1,Double anions
mp-352,HfO2,True,False,4.0165,-4.019811040833332,[5.0],,10.1007/s10825-017-1043-2,Double anions
mp-352,HfO2,True,False,4.0165,-4.019811040833332,[4.08],,10.1007/s10854-020-03479-4,Double anions
mp-352,HfO2,True,False,4.0165,-4.019811040833332,[5.8],,10.1007/s13204-014-0298-1,Double anions
mp-352,HfO2,True,False,4.0165,-4.019811040833332,[6.0],,10.1038/am.2015.57,Double anions
mp-352,HfO2,True,False,4.0165,-4.019811040833332,[5.41],,10.1038/s41598-017-07753-0,Double anions
mp-352,HfO2,True,False,4.0165,-4.019811040833332,[2.4],,10.1038/srep29184,Double anions
mp-352,HfO2,True,False,4.0165,-4.019811040833332,[6.0],,10.1007/s10825-017-1060-1,Double anions
mp-352,HfO2,True,False,4.0165,-4.019811040833332,[5.68],,10.1007/s10854-006-0014-3,Double anions
mp-352,HfO2,True,False,4.0165,-4.019811040833332,[5.8],271,10.1007/s10854-006-9111-6,Double anions
mp-352,HfO2,True,False,4.0165,-4.019811040833332,[5.3],,10.1186/s11671-017-2068-y,Double anions
mp-352,HfO2,True,False,4.0165,-4.019811040833332,[5.55],,10.1021/jacs.5b03986,Double anions
mp-2345,Dy2O3,True,False,3.925499999999999,-4.005045779666665,[4.73],,10.1016/j.cej.2011.02.051,Double anions
mp-2345,Dy2O3,True,False,3.925499999999999,-4.005045779666665,[4.8],,10.1039/c9ra08335a,Double anions
mp-2345,Dy2O3,True,False,3.925499999999999,-4.005045779666665,[4.9],,10.1007/s10854-017-7434-0,Double anions
mp-2345,Dy2O3,True,False,3.925499999999999,-4.005045779666665,[5.29],,10.1007/s10854-017-8026-8,Double anions
mp-2345,Dy2O3,True,False,3.925499999999999,-4.005045779666665,[4.8],,10.1007/s10876-016-1150-4,Double anions
mp-2345,Dy2O3,True,False,3.925499999999999,-4.005045779666665,[4.9],1473,10.1007/s10854-016-4824-7,Double anions
mp-2345,Dy2O3,True,False,3.925499999999999,-4.005045779666665,[3.78],,10.1007/s10854-017-6333-8,Double anions
mp-2345,Dy2O3,True,False,3.925499999999999,-4.005045779666665,[3.08],,10.1021/jacs.5b03986,Double anions
mp-2345,Dy2O3,True,False,3.925499999999999,-4.005045779666665,[1.39],,10.1021/jacs.5b03986,Double anions
mp-1056,Tb2O3,True,False,3.9006,-3.9821810734166654,[3.82],,10.1007/s10948-016-3898-z,Double anions
mp-1056,Tb2O3,True,False,3.9006,-3.9821810734166654,[0.95],,10.1021/jacs.5b03986,Double anions
mp-1056,Tb2O3,True,False,3.9006,-3.9821810734166654,[0.86],,10.1021/jacs.5b03986,Double anions
mp-8291,BaTiF6,True,False,4.3236,-3.976591936041666,[3.03],,10.1016/j.jece.2017.04.038,Halides
mp-8291,BaTiF6,True,False,4.3236,-3.976591936041666,[2.91],,10.1016/j.jece.2017.04.038,Halides
mp-8291,BaTiF6,True,False,4.3236,-3.976591936041666,[4.18],,10.1039/c6ce01046f,Halides
mp-216,Sc2O3,True,False,3.8235,-3.968732640749999,[6.3],,10.1016/j.tsf.2008.05.050,Double anions
mp-216,Sc2O3,True,False,3.8235,-3.968732640749999,[6.0],,10.1016/j.tsf.2010.10.073,Double anions
mp-216,Sc2O3,True,False,3.8235,-3.968732640749999,[5.7],2753,10.1016/S0040-6090(00)00924-X,Double anions
mp-216,Sc2O3,True,False,3.8235,-3.968732640749999,[6.3],,10.1039/c2dt31219k,Double anions
mp-216,Sc2O3,True,False,3.8235,-3.968732640749999,[5.88],,10.1007/s10853-006-0394-z,Double anions
mp-216,Sc2O3,True,False,3.8235,-3.968732640749999,[5.7],,10.1007/s10853-015-8881-8,Double anions
mp-216,Sc2O3,True,False,3.8235,-3.968732640749999,[6.0],,10.1021/jacs.5b03986,Double anions
mp-216,Sc2O3,True,False,3.8235,-3.968732640749999,[6.2],,10.1021/jacs.5b03986,Double anions
mp-216,Sc2O3,True,False,3.8235,-3.968732640749999,[5.4],,10.1021/jacs.5b03986,Double anions
mp-216,Sc2O3,True,False,3.8235,-3.968732640749999,[1.7],,10.1021/jacs.5b03986,Double anions
mp-2652,Y2O3,True,False,4.097300000000001,-3.953871922749999,[5.6],,10.1016/j.matpr.2016.11.098,Double anions
mp-2652,Y2O3,True,False,4.097300000000001,-3.953871922749999,[5.6],,10.1016/j.matpr.2017.06.403,Double anions
mp-2652,Y2O3,True,False,4.097300000000001,-3.953871922749999,[5.8],,10.1016/j.optmat.2014.02.014,Double anions
mp-2652,Y2O3,True,False,4.097300000000001,-3.953871922749999,[5.45],,10.1016/j.optmat.2017.07.011,Double anions
mp-2652,Y2O3,True,False,4.097300000000001,-3.953871922749999,[5.6],,10.1016/j.optmat.2018.06.003,Double anions
mp-2652,Y2O3,True,False,4.097300000000001,-3.953871922749999,[5.8],,10.1016/j.physb.2013.11.051,Double anions
mp-2652,Y2O3,True,False,4.097300000000001,-3.953871922749999,[5.6],,10.1016/j.physb.2016.06.007,Double anions
mp-2652,Y2O3,True,False,4.097300000000001,-3.953871922749999,[5.8],,10.1016/j.tsf.2003.12.059,Double anions
mp-2652,Y2O3,True,False,4.097300000000001,-3.953871922749999,[5.5],,10.1016/j.tsf.2006.11.177,Double anions
mp-2652,Y2O3,True,False,4.097300000000001,-3.953871922749999,[6.14],,10.1016/j.tsf.2010.02.024,Double anions
mp-2652,Y2O3,True,False,4.097300000000001,-3.953871922749999,[5.5],,10.1016/j.tsf.2016.01.018,Double anions
mp-2652,Y2O3,True,False,4.097300000000001,-3.953871922749999,[5.1],,10.1016/S0040-6090(01)01468-7,Double anions
mp-2652,Y2O3,True,False,4.097300000000001,-3.953871922749999,[3.2],,10.1039/c5nj03711e,Double anions
mp-2652,Y2O3,True,False,4.097300000000001,-3.953871922749999,[3.96],,10.1039/c5ra16621g,Double anions
mp-2652,Y2O3,True,False,4.097300000000001,-3.953871922749999,[4.5],,10.1039/c5ra16621g,Double anions
mp-2652,Y2O3,True,False,4.097300000000001,-3.953871922749999,[0.04],,10.1039/c5ra16621g,Double anions
mp-2652,Y2O3,True,False,4.097300000000001,-3.953871922749999,[5.17],,10.1039/c9ce00672a,Double anions
mp-2652,Y2O3,True,False,4.097300000000001,-3.953871922749999,[6.0],,10.1039/c4tc00031e,Double anions
mp-2652,Y2O3,True,False,4.097300000000001,-3.953871922749999,[4.6],,10.1039/c9ta11839j,Double anions
mp-2652,Y2O3,True,False,4.097300000000001,-3.953871922749999,[4.49],,10.1039/c3ce42529k,Double anions
mp-2652,Y2O3,True,False,4.097300000000001,-3.953871922749999,[3.13],,10.1039/c4dt01266f,Double anions
mp-2652,Y2O3,True,False,4.097300000000001,-3.953871922749999,[5.6],,10.1039/c4ta01057d,Double anions
mp-2652,Y2O3,True,False,4.097300000000001,-3.953871922749999,[8.8],,10.1039/d0tc01876g,Double anions
mp-2652,Y2O3,True,False,4.097300000000001,-3.953871922749999,[5.8],,10.1039/d0tc03213a,Double anions
mp-2652,Y2O3,True,False,4.097300000000001,-3.953871922749999,[5.6],,10.1007/s10854-018-0097-7,Double anions
mp-2652,Y2O3,True,False,4.097300000000001,-3.953871922749999,[5.5],,10.1007/s10854-018-0097-7,Double anions
mp-2652,Y2O3,True,False,4.097300000000001,-3.953871922749999,[5.5],,10.1007/s10973-019-08407-1,Double anions
mp-2652,Y2O3,True,False,4.097300000000001,-3.953871922749999,[5.8],,10.1007/s11164-011-0474-9,Double anions
mp-2652,Y2O3,True,False,4.097300000000001,-3.953871922749999,[5.6],,10.1007/s11164-014-1563-3,Double anions
mp-2652,Y2O3,True,False,4.097300000000001,-3.953871922749999,[1.5],,10.1007/s11164-019-03819-y,Double anions
mp-2652,Y2O3,True,False,4.097300000000001,-3.953871922749999,[3.886],,10.1134/S0036024419130399,Double anions
mp-2652,Y2O3,True,False,4.097300000000001,-3.953871922749999,[5.8],,10.1007/s10853-016-9922-7,Double anions
mp-2652,Y2O3,True,False,4.097300000000001,-3.953871922749999,[6.0],,10.1007/s00339-013-7680-9,Double anions
mp-2652,Y2O3,True,False,4.097300000000001,-3.953871922749999,[6.0],,10.1038/s41598-020-70005-1,Double anions
mp-2652,Y2O3,True,False,4.097300000000001,-3.953871922749999,[5.8],,10.1007/s11164-012-0908-z,Double anions
mp-2652,Y2O3,True,False,4.097300000000001,-3.953871922749999,[5.6],,10.1021/jacs.5b03986,Double anions