mpids,formula,is_stable,theoretical,band_gap,formation_energy_per_atom,Value,Temperature_raw_value,DOI,compound_type
mp-390,TiO2,True,False,2.0586,-3.508055451944444,[3.16],,10.1016/j.tsf.2006.11.150,Double anions
mp-390,TiO2,True,False,2.0586,-3.508055451944444,[3.0],,10.1016/j.tsf.2007.02.082,Double anions
mp-390,TiO2,True,False,2.0586,-3.508055451944444,[3.7],,10.1016/j.tsf.2007.03.014,Double anions
mp-390,TiO2,True,False,2.0586,-3.508055451944444,[3.0],,10.1016/j.tsf.2007.03.019,Double anions
mp-390,TiO2,True,False,2.0586,-3.508055451944444,[3.2],,10.1016/j.tsf.2007.03.057,Double anions
mp-390,TiO2,True,False,2.0586,-3.508055451944444,[3.2],,10.1016/j.tsf.2007.03.079,Double anions
mp-390,TiO2,True,False,2.0586,-3.508055451944444,[3.0],,10.1016/j.tsf.2007.03.079,Double anions
mp-390,TiO2,True,False,2.0586,-3.508055451944444,[3.0],,10.1016/j.tsf.2007.03.110,Double anions
mp-390,TiO2,True,False,2.0586,-3.508055451944444,[3.2],,10.1016/j.tsf.2007.03.115,Double anions
mp-390,TiO2,True,False,2.0586,-3.508055451944444,[3.2],,10.1016/j.tsf.2007.03.140,Double anions
mp-390,TiO2,True,False,2.0586,-3.508055451944444,[3.0],,10.1016/j.tsf.2007.05.040,Double anions
mp-390,TiO2,True,False,2.0586,-3.508055451944444,[3.0],,10.1016/j.tsf.2007.05.044,Double anions
mp-390,TiO2,True,False,2.0586,-3.508055451944444,[3.2],,10.1016/j.tsf.2007.05.079,Double anions
mp-390,TiO2,True,False,2.0586,-3.508055451944444,[3.19],,10.1016/j.tsf.2007.06.125,Double anions
mp-390,TiO2,True,False,2.0586,-3.508055451944444,[0.01],,10.1016/j.tsf.2007.06.172,Double anions
mp-390,TiO2,True,False,2.0586,-3.508055451944444,[3.2],,10.1016/j.tsf.2007.07.004,Double anions
mp-390,TiO2,True,False,2.0586,-3.508055451944444,[3.2],,10.1016/j.tsf.2007.08.053,Double anions
mp-390,TiO2,True,False,2.0586,-3.508055451944444,[3.25],600,10.1016/j.tsf.2007.09.031,Double anions
mp-390,TiO2,True,False,2.0586,-3.508055451944444,[3.2],,10.1016/j.tsf.2007.10.102,Double anions
mp-390,TiO2,True,False,2.0586,-3.508055451944444,[3.06],,10.1016/j.tsf.2007.11.037,Double anions
mp-390,TiO2,True,False,2.0586,-3.508055451944444,[3.2],,10.1016/j.tsf.2007.12.145,Double anions
mp-390,TiO2,True,False,2.0586,-3.508055451944444,[3.2],,10.1016/j.tsf.2008.03.047,Double anions
mp-390,TiO2,True,False,2.0586,-3.508055451944444,[3.05],,10.1016/j.tsf.2008.04.039,Double anions
mp-390,TiO2,True,False,2.0586,-3.508055451944444,[3.2],,10.1016/j.tsf.2008.05.014,Double anions
mp-390,TiO2,True,False,2.0586,-3.508055451944444,[3.33],,10.1016/j.tsf.2008.05.014,Double anions
mp-390,TiO2,True,False,2.0586,-3.508055451944444,[3.2],,10.1016/j.tsf.2008.07.028,Double anions
mp-390,TiO2,True,False,2.0586,-3.508055451944444,[3.5],,10.1016/j.tsf.2008.08.008,Double anions
mp-390,TiO2,True,False,2.0586,-3.508055451944444,[3.0],,10.1016/j.tsf.2008.08.179,Double anions
mp-390,TiO2,True,False,2.0586,-3.508055451944444,[5.0],,10.1016/j.tsf.2008.09.064,Double anions
mp-390,TiO2,True,False,2.0586,-3.508055451944444,[3.2],,10.1016/j.tsf.2008.11.087,Double anions
mp-390,TiO2,True,False,2.0586,-3.508055451944444,[3.28],,10.1016/j.tsf.2009.01.133,Double anions
mp-390,TiO2,True,False,2.0586,-3.508055451944444,[3.2],,10.1016/j.tsf.2009.02.040,Double anions
mp-390,TiO2,True,False,2.0586,-3.508055451944444,[3.17],,10.1016/j.tsf.2009.03.169,Double anions
mp-390,TiO2,True,False,2.0586,-3.508055451944444,[3.53],,10.1016/j.tsf.2009.03.219,Double anions
mp-390,TiO2,True,False,2.0586,-3.508055451944444,[3.2],,10.1016/j.tsf.2009.03.230,Double anions
mp-390,TiO2,True,False,2.0586,-3.508055451944444,[3.11],,10.1016/j.tsf.2009.04.035,Double anions
mp-390,TiO2,True,False,2.0586,-3.508055451944444,[3.2],,10.1016/j.tsf.2009.04.035,Double anions
mp-390,TiO2,True,False,2.0586,-3.508055451944444,[3.2],,10.1016/j.tsf.2009.04.070,Double anions
mp-390,TiO2,True,False,2.0586,-3.508055451944444,[1.4],,10.1016/j.tsf.2009.06.039,Double anions
mp-390,TiO2,True,False,2.0586,-3.508055451944444,[3.0],,10.1016/j.tsf.2009.06.044,Double anions
mp-390,TiO2,True,False,2.0586,-3.508055451944444,[3.36],,10.1016/j.tsf.2009.06.064,Double anions
mp-390,TiO2,True,False,2.0586,-3.508055451944444,[3.67],,10.1016/j.tsf.2009.07.135,Double anions
mp-390,TiO2,True,False,2.0586,-3.508055451944444,[3.2],,10.1016/j.tsf.2009.07.198,Double anions
mp-390,TiO2,True,False,2.0586,-3.508055451944444,[3.26],,10.1016/j.tsf.2009.07.198,Double anions
mp-390,TiO2,True,False,2.0586,-3.508055451944444,[3.9],,10.1016/j.tsf.2009.08.050,Double anions
mp-390,TiO2,True,False,2.0586,-3.508055451944444,[3.2],,10.1016/j.tsf.2009.08.050,Double anions
mp-390,TiO2,True,False,2.0586,-3.508055451944444,[3.2],,10.1016/j.tsf.2009.09.062,Double anions
mp-390,TiO2,True,False,2.0586,-3.508055451944444,[3.2],,10.1016/j.tsf.2009.12.051,Double anions
mp-390,TiO2,True,False,2.0586,-3.508055451944444,[4.03],,10.1016/j.tsf.2010.03.093,Double anions
mp-390,TiO2,True,False,2.0586,-3.508055451944444,[1.82],,10.1016/j.tsf.2010.03.098,Double anions
mp-390,TiO2,True,False,2.0586,-3.508055451944444,[3.2],,10.1016/j.tsf.2010.03.126,Double anions
mp-390,TiO2,True,False,2.0586,-3.508055451944444,[3.0],,10.1016/j.tsf.2010.05.123,Double anions
mp-390,TiO2,True,False,2.0586,-3.508055451944444,[3.2],,10.1016/j.tsf.2010.07.071,Double anions
mp-390,TiO2,True,False,2.0586,-3.508055451944444,[3.65],,10.1016/j.tsf.2010.07.073,Double anions
mp-390,TiO2,True,False,2.0586,-3.508055451944444,[3.2],,10.1016/j.tsf.2010.07.073,Double anions
mp-390,TiO2,True,False,2.0586,-3.508055451944444,[3.37],,10.1016/j.tsf.2010.07.073,Double anions
mp-390,TiO2,True,False,2.0586,-3.508055451944444,[3.2],,10.1016/j.tsf.2010.09.043,Double anions
mp-390,TiO2,True,False,2.0586,-3.508055451944444,[3.49],,10.1016/j.tsf.2010.09.043,Double anions
mp-390,TiO2,True,False,2.0586,-3.508055451944444,[2.62],,10.1016/j.tsf.2010.11.050,Double anions
mp-390,TiO2,True,False,2.0586,-3.508055451944444,[3.02],,10.1016/j.tsf.2011.01.017,Double anions
mp-390,TiO2,True,False,2.0586,-3.508055451944444,[3.2],,10.1016/j.tsf.2011.01.023,Double anions
mp-390,TiO2,True,False,2.0586,-3.508055451944444,[3.22],,10.1016/j.tsf.2011.01.023,Double anions
mp-390,TiO2,True,False,2.0586,-3.508055451944444,[3.2],,10.1016/j.tsf.2011.01.069,Double anions
mp-390,TiO2,True,False,2.0586,-3.508055451944444,[3.23],,10.1016/j.tsf.2011.01.126,Double anions
mp-390,TiO2,True,False,2.0586,-3.508055451944444,[3.5],,10.1016/j.tsf.2011.01.239,Double anions
mp-390,TiO2,True,False,2.0586,-3.508055451944444,[3.2],,10.1016/j.tsf.2011.01.267,Double anions
mp-390,TiO2,True,False,2.0586,-3.508055451944444,[3.2],,10.1016/j.tsf.2011.02.008,Double anions
mp-390,TiO2,True,False,2.0586,-3.508055451944444,[3.4],600,10.1016/j.tsf.2011.04.230,Double anions
mp-390,TiO2,True,False,2.0586,-3.508055451944444,[3.37],,10.1016/j.tsf.2011.07.016,Double anions
mp-390,TiO2,True,False,2.0586,-3.508055451944444,[3.35],,10.1016/j.tsf.2011.08.097,Double anions
mp-390,TiO2,True,False,2.0586,-3.508055451944444,[3.2],,10.1016/j.tsf.2011.09.080,Double anions
mp-390,TiO2,True,False,2.0586,-3.508055451944444,[3.78],,10.1016/j.tsf.2011.10.130,Double anions
mp-390,TiO2,True,False,2.0586,-3.508055451944444,[3.2],,10.1016/j.tsf.2011.10.186,Double anions
mp-390,TiO2,True,False,2.0586,-3.508055451944444,[3.23],,10.1016/j.tsf.2011.11.026,Double anions
mp-390,TiO2,True,False,2.0586,-3.508055451944444,[3.2],,10.1016/j.tsf.2011.12.018,Double anions
mp-390,TiO2,True,False,2.0586,-3.508055451944444,[3.4],,10.1016/j.tsf.2011.12.028,Double anions
mp-390,TiO2,True,False,2.0586,-3.508055451944444,[3.0],,10.1016/j.tsf.2011.12.036,Double anions
mp-390,TiO2,True,False,2.0586,-3.508055451944444,[3.2],300,10.1016/j.tsf.2011.12.050,Double anions
mp-390,TiO2,True,False,2.0586,-3.508055451944444,[3.35],,10.1016/j.tsf.2011.12.050,Double anions
mp-390,TiO2,True,False,2.0586,-3.508055451944444,[3.2],,10.1016/j.tsf.2011.12.076,Double anions
mp-390,TiO2,True,False,2.0586,-3.508055451944444,[3.0],,10.1016/j.tsf.2012.01.045,Double anions
mp-390,TiO2,True,False,2.0586,-3.508055451944444,[3.45],,10.1016/j.tsf.2012.03.003,Double anions
mp-390,TiO2,True,False,2.0586,-3.508055451944444,[3.2],,10.1016/j.tsf.2012.03.004,Double anions
mp-390,TiO2,True,False,2.0586,-3.508055451944444,[3.2],,10.1016/j.tsf.2012.03.026,Double anions
mp-390,TiO2,True,False,2.0586,-3.508055451944444,[3.5],,10.1016/j.tsf.2012.03.047,Double anions
mp-390,TiO2,True,False,2.0586,-3.508055451944444,[3.04],,10.1016/j.tsf.2012.04.011,Double anions
mp-390,TiO2,True,False,2.0586,-3.508055451944444,[3.2],,10.1016/j.tsf.2012.07.121,Double anions
mp-390,TiO2,True,False,2.0586,-3.508055451944444,[3.0],,10.1016/j.tsf.2012.08.013,Double anions
mp-390,TiO2,True,False,2.0586,-3.508055451944444,[3.2],,10.1016/j.tsf.2012.10.112,Double anions
mp-390,TiO2,True,False,2.0586,-3.508055451944444,[3.2],,10.1016/j.tsf.2012.12.056,Double anions
mp-390,TiO2,True,False,2.0586,-3.508055451944444,[3.23],,10.1016/j.tsf.2013.03.058,Double anions
mp-390,TiO2,True,False,2.0586,-3.508055451944444,[3.0],,10.1016/j.tsf.2013.06.015,Double anions
mp-390,TiO2,True,False,2.0586,-3.508055451944444,[3.4],,10.1016/j.tsf.2013.07.076,Double anions
mp-390,TiO2,True,False,2.0586,-3.508055451944444,[2.91],,10.1016/j.tsf.2013.08.049,Double anions
mp-390,TiO2,True,False,2.0586,-3.508055451944444,[1.2],,10.1016/j.tsf.2013.08.049,Double anions
mp-390,TiO2,True,False,2.0586,-3.508055451944444,[2.6],,10.1016/j.tsf.2013.09.043,Double anions
mp-390,TiO2,True,False,2.0586,-3.508055451944444,[3.23],,10.1016/j.tsf.2013.09.092,Double anions
mp-390,TiO2,True,False,2.0586,-3.508055451944444,[3.2],,10.1016/j.tsf.2013.11.006,Double anions
mp-390,TiO2,True,False,2.0586,-3.508055451944444,[3.3],,10.1016/j.tsf.2013.11.045,Double anions
mp-390,TiO2,True,False,2.0586,-3.508055451944444,[3.1],,10.1016/j.tsf.2014.02.030,Double anions
mp-390,TiO2,True,False,2.0586,-3.508055451944444,[3.2],,10.1016/j.tsf.2014.04.067,Double anions
mp-390,TiO2,True,False,2.0586,-3.508055451944444,[3.2],,10.1016/j.tsf.2014.05.018,Double anions
mp-390,TiO2,True,False,2.0586,-3.508055451944444,[3.4],,10.1016/j.tsf.2014.05.048,Double anions
mp-390,TiO2,True,False,2.0586,-3.508055451944444,[2.56],,10.1016/j.tsf.2014.09.059,Double anions
mp-390,TiO2,True,False,2.0586,-3.508055451944444,[3.2],,10.1016/j.tsf.2014.09.059,Double anions
mp-390,TiO2,True,False,2.0586,-3.508055451944444,[3.2],,10.1016/j.tsf.2014.11.046,Double anions
mp-390,TiO2,True,False,2.0586,-3.508055451944444,[3.5],,10.1016/j.tsf.2015.10.036,Double anions
mp-390,TiO2,True,False,2.0586,-3.508055451944444,[3.2],,10.1016/j.tsf.2015.11.083,Double anions
mp-390,TiO2,True,False,2.0586,-3.508055451944444,[3.2],,10.1016/j.tsf.2016.06.049,Double anions
mp-390,TiO2,True,False,2.0586,-3.508055451944444,[3.82],,10.1016/j.tsf.2016.06.049,Double anions
mp-390,TiO2,True,False,2.0586,-3.508055451944444,[4.5],,10.1016/j.tsf.2016.06.053,Double anions
mp-390,TiO2,True,False,2.0586,-3.508055451944444,[3.2],,10.1016/j.tsf.2016.06.053,Double anions
mp-390,TiO2,True,False,2.0586,-3.508055451944444,[3.2],,10.1016/j.tsf.2016.08.010,Double anions
mp-390,TiO2,True,False,2.0586,-3.508055451944444,[3.37],,10.1016/j.tsf.2016.10.002,Double anions
mp-390,TiO2,True,False,2.0586,-3.508055451944444,[3.1],,10.1016/j.tsf.2016.10.020,Double anions
mp-390,TiO2,True,False,2.0586,-3.508055451944444,[3.5],,10.1016/j.tsf.2016.11.053,Double anions
mp-390,TiO2,True,False,2.0586,-3.508055451944444,[2.68],,10.1016/j.tsf.2016.12.042,Double anions
mp-390,TiO2,True,False,2.0586,-3.508055451944444,[3.2],,10.1016/j.tsf.2017.03.031,Double anions
mp-390,TiO2,True,False,2.0586,-3.508055451944444,[3.2],,10.1016/j.tsf.2017.04.036,Double anions
mp-390,TiO2,True,False,2.0586,-3.508055451944444,[3.25],,10.1016/j.tsf.2017.04.036,Double anions
mp-390,TiO2,True,False,2.0586,-3.508055451944444,[3.2],,10.1016/j.tsf.2017.08.032,Double anions
mp-390,TiO2,True,False,2.0586,-3.508055451944444,[3.25],,10.1016/j.tsf.2017.10.028,Double anions
mp-390,TiO2,True,False,2.0586,-3.508055451944444,[3.2],,10.1016/j.tsf.2017.11.030,Double anions
mp-390,TiO2,True,False,2.0586,-3.508055451944444,[3.0],,10.1016/j.tsf.2018.02.038,Double anions
mp-390,TiO2,True,False,2.0586,-3.508055451944444,[3.1],,10.1016/j.tsf.2018.02.038,Double anions
mp-390,TiO2,True,False,2.0586,-3.508055451944444,[1.5],,10.1016/j.tsf.2018.02.038,Double anions
mp-390,TiO2,True,False,2.0586,-3.508055451944444,[3.36],,10.1016/j.tsf.2018.03.018,Double anions
mp-390,TiO2,True,False,2.0586,-3.508055451944444,[3.2],,10.1016/j.tsf.2018.03.059,Double anions
mp-390,TiO2,True,False,2.0586,-3.508055451944444,[3.02],,10.1016/j.tsf.2018.03.091,Double anions
mp-390,TiO2,True,False,2.0586,-3.508055451944444,[3.08],,10.1016/j.tsf.2018.07.010,Double anions
mp-390,TiO2,True,False,2.0586,-3.508055451944444,[4.83],,10.1016/j.tsf.2018.08.042,Double anions
mp-390,TiO2,True,False,2.0586,-3.508055451944444,[2.48],,10.1016/j.tsf.2018.09.007,Double anions
mp-390,TiO2,True,False,2.0586,-3.508055451944444,[3.2],,10.1016/j.tsf.2018.09.007,Double anions
mp-390,TiO2,True,False,2.0586,-3.508055451944444,[3.2],,10.1016/j.tsf.2018.12.045,Double anions
mp-390,TiO2,True,False,2.0586,-3.508055451944444,[3.2],,10.1016/j.tsf.2019.03.029,Double anions
mp-390,TiO2,True,False,2.0586,-3.508055451944444,[3.2],,10.1016/j.tsf.2019.05.040,Double anions
mp-390,TiO2,True,False,2.0586,-3.508055451944444,[3.3],,10.1016/j.tsf.2019.06.052,Double anions
mp-390,TiO2,True,False,2.0586,-3.508055451944444,[3.26],,10.1016/j.tsf.2019.06.052,Double anions
mp-390,TiO2,True,False,2.0586,-3.508055451944444,[3.2],,10.1016/j.tsf.2019.137421,Double anions
mp-390,TiO2,True,False,2.0586,-3.508055451944444,[3.27],,10.1016/j.tsf.2019.137598,Double anions
mp-390,TiO2,True,False,2.0586,-3.508055451944444,[3.2],,10.1016/j.tsf.2019.137677,Double anions
mp-390,TiO2,True,False,2.0586,-3.508055451944444,[3.29],,10.1016/j.tsf.2020.137856,Double anions
mp-390,TiO2,True,False,2.0586,-3.508055451944444,[3.62],,10.1016/j.tsf.2020.137888,Double anions
mp-390,TiO2,True,False,2.0586,-3.508055451944444,[3.2],,10.1016/j.tsf.2020.138009,Double anions
mp-390,TiO2,True,False,2.0586,-3.508055451944444,[3.2],,10.1016/j.tsf.2020.138212,Double anions
mp-390,TiO2,True,False,2.0586,-3.508055451944444,[3.03],,10.1016/S0040-6090(00)00725-2,Double anions
mp-390,TiO2,True,False,2.0586,-3.508055451944444,[3.7],,10.1016/S0040-6090(00)01184-6,Double anions
mp-390,TiO2,True,False,2.0586,-3.508055451944444,[3.5],,10.1016/S0040-6090(00)01453-X,Double anions
mp-390,TiO2,True,False,2.0586,-3.508055451944444,[3.2],,10.1016/S0040-6090(01)00853-7,Double anions
mp-390,TiO2,True,False,2.0586,-3.508055451944444,[3.1],,10.1016/S0040-6090(01)00987-7,Double anions
mp-390,TiO2,True,False,2.0586,-3.508055451944444,[3.0],,10.1016/S0040-6090(01)01054-9,Double anions
mp-390,TiO2,True,False,2.0586,-3.508055451944444,[3.22],,10.1016/S0040-6090(01)01636-4,Double anions
mp-390,TiO2,True,False,2.0586,-3.508055451944444,[3.2],,10.1016/S0040-6090(02)01290-7,Double anions
mp-390,TiO2,True,False,2.0586,-3.508055451944444,[3.2],,10.1016/S0040-6090(03)00331-6,Double anions
mp-390,TiO2,True,False,2.0586,-3.508055451944444,[3.2],,10.1016/S0040-6090(03)00431-0,Double anions
mp-390,TiO2,True,False,2.0586,-3.508055451944444,[3.0],,10.1016/S0040-6090(03)00985-4,Double anions
mp-390,TiO2,True,False,2.0586,-3.508055451944444,[3.0],,10.1016/S0040-6090(99)00658-6,Double anions
mp-390,TiO2,True,False,2.0586,-3.508055451944444,[3.02],0,10.1016/S0040-6090(99)00938-4,Double anions
mp-390,TiO2,True,False,2.0586,-3.508055451944444,[3.117],,10.1016/S0040-6090(99)00966-9,Double anions
mp-390,TiO2,True,False,2.0586,-3.508055451944444,[3.2],,10.1016/B978-0-08-102665-6.00015-7,Double anions
mp-390,TiO2,True,False,2.0586,-3.508055451944444,[3.15],,10.1016/j.apsusc.2009.11.048,Double anions
mp-390,TiO2,True,False,2.0586,-3.508055451944444,[0.95],,10.1016/j.apsusc.2016.07.007,Double anions
mp-390,TiO2,True,False,2.0586,-3.508055451944444,[3.2],,10.1016/j.apsusc.2016.07.007,Double anions
mp-390,TiO2,True,False,2.0586,-3.508055451944444,[3.16],,10.1016/j.apsusc.2016.07.007,Double anions
mp-390,TiO2,True,False,2.0586,-3.508055451944444,[3.19],,10.1016/j.apsusc.2016.07.007,Double anions
mp-390,TiO2,True,False,2.0586,-3.508055451944444,[3.2],,10.1016/j.apsusc.2019.143965,Double anions
mp-390,TiO2,True,False,2.0586,-3.508055451944444,[3.2],,10.1016/j.apsusc.2019.144048,Double anions
mp-390,TiO2,True,False,2.0586,-3.508055451944444,[3.23],,10.1016/j.apsusc.2019.144880,Double anions
mp-390,TiO2,True,False,2.0586,-3.508055451944444,[2.88],,10.1016/j.apsusc.2019.144880,Double anions
mp-390,TiO2,True,False,2.0586,-3.508055451944444,[2.5],,10.1016/j.apsusc.2020.146195,Double anions
mp-390,TiO2,True,False,2.0586,-3.508055451944444,[2.9],,10.1016/j.apsusc.2020.146967,Double anions
mp-390,TiO2,True,False,2.0586,-3.508055451944444,[3.2],,10.1016/j.cap.2010.09.005,Double anions
mp-390,TiO2,True,False,2.0586,-3.508055451944444,[3.2],,10.1016/j.cap.2013.03.025,Double anions
mp-390,TiO2,True,False,2.0586,-3.508055451944444,[3.25],,10.1016/j.cap.2013.12.025,Double anions
mp-390,TiO2,True,False,2.0586,-3.508055451944444,[2.87],,10.1016/j.cap.2013.12.025,Double anions
mp-390,TiO2,True,False,2.0586,-3.508055451944444,[3.2],,10.1016/j.cattod.2016.12.048,Double anions
mp-390,TiO2,True,False,2.0586,-3.508055451944444,[0.2],,10.1016/j.cattod.2017.12.002,Double anions
mp-390,TiO2,True,False,2.0586,-3.508055451944444,[3.47],,10.1016/j.cclet.2016.04.016,Double anions
mp-390,TiO2,True,False,2.0586,-3.508055451944444,[3.29],,10.1016/j.cclet.2016.04.016,Double anions
mp-390,TiO2,True,False,2.0586,-3.508055451944444,[3.2],,10.1016/j.ceramint.2019.09.200,Double anions
mp-390,TiO2,True,False,2.0586,-3.508055451944444,[3.128],,10.1016/j.ceramint.2019.09.200,Double anions
mp-390,TiO2,True,False,2.0586,-3.508055451944444,[2.982],,10.1016/j.ceramint.2019.09.200,Double anions
mp-390,TiO2,True,False,2.0586,-3.508055451944444,[3.2],,10.1016/j.chemosphere.2018.09.053,Double anions
mp-390,TiO2,True,False,2.0586,-3.508055451944444,[2.62],,10.1016/j.cjph.2018.04.011,Double anions
mp-390,TiO2,True,False,2.0586,-3.508055451944444,[0.26],,10.1016/j.commatsci.2019.05.016,Double anions
mp-390,TiO2,True,False,2.0586,-3.508055451944444,[3.2],,10.1016/j.compstruct.2017.02.058,Double anions
mp-390,TiO2,True,False,2.0586,-3.508055451944444,[2.19],,10.1016/j.cplett.2012.01.009,Double anions
mp-390,TiO2,True,False,2.0586,-3.508055451944444,[0.65],,10.1016/j.cplett.2012.01.009,Double anions
mp-390,TiO2,True,False,2.0586,-3.508055451944444,[0.21],,10.1016/j.cplett.2012.04.057,Double anions
mp-390,TiO2,True,False,2.0586,-3.508055451944444,[2.07],,10.1016/j.cplett.2012.04.057,Double anions
mp-390,TiO2,True,False,2.0586,-3.508055451944444,[1.02],,10.1016/j.cplett.2012.04.057,Double anions
mp-390,TiO2,True,False,2.0586,-3.508055451944444,[3.2],,10.1016/j.cplett.2014.09.035,Double anions
mp-390,TiO2,True,False,2.0586,-3.508055451944444,[3.2],,10.1016/j.elecom.2010.03.029,Double anions
mp-390,TiO2,True,False,2.0586,-3.508055451944444,[2.6],,10.1016/j.elecom.2010.03.029,Double anions
mp-390,TiO2,True,False,2.0586,-3.508055451944444,[2.7],,10.1016/j.electacta.2018.03.091,Double anions
mp-390,TiO2,True,False,2.0586,-3.508055451944444,[3.2],,10.1016/j.electacta.2018.03.091,Double anions
mp-390,TiO2,True,False,2.0586,-3.508055451944444,[3.0],,10.1016/j.ica.2018.05.027,Double anions
mp-390,TiO2,True,False,2.0586,-3.508055451944444,[3.149],,10.1016/j.ijhydene.2012.02.057,Double anions
mp-390,TiO2,True,False,2.0586,-3.508055451944444,[3.223],,10.1016/j.ijhydene.2012.02.057,Double anions
mp-390,TiO2,True,False,2.0586,-3.508055451944444,[3.2],,10.1016/j.ijhydene.2013.11.055,Double anions
mp-390,TiO2,True,False,2.0586,-3.508055451944444,[2.48],,10.1016/j.ijhydene.2014.06.059,Double anions
mp-390,TiO2,True,False,2.0586,-3.508055451944444,[3.2],,10.1016/j.ijhydene.2017.01.232,Double anions
mp-390,TiO2,True,False,2.0586,-3.508055451944444,[3.0],,10.1016/j.ijhydene.2017.01.232,Double anions