mpids,formula,is_stable,theoretical,band_gap,formation_energy_per_atom,Value,Temperature_raw_value,DOI,compound_type
mp-390,TiO2,True,False,2.0586,-3.508055451944444,[3.2],,10.1007/s11270-019-4134-9,Double anions
mp-390,TiO2,True,False,2.0586,-3.508055451944444,[3.0],,10.1007/s11356-011-0665-3,Double anions
mp-390,TiO2,True,False,2.0586,-3.508055451944444,[3.15],,10.1007/s11356-012-0771-x,Double anions
mp-390,TiO2,True,False,2.0586,-3.508055451944444,[2.8],,10.1007/s11356-012-1131-6,Double anions
mp-390,TiO2,True,False,2.0586,-3.508055451944444,[3.2],,10.1007/s11356-013-2003-4,Double anions
mp-390,TiO2,True,False,2.0586,-3.508055451944444,[3.2],,10.1007/s11356-015-4163-x,Double anions
mp-390,TiO2,True,False,2.0586,-3.508055451944444,[3.1],,10.1007/s11356-015-4667-4,Double anions
mp-390,TiO2,True,False,2.0586,-3.508055451944444,[3.07],,10.1007/s11356-015-4667-4,Double anions
mp-390,TiO2,True,False,2.0586,-3.508055451944444,[3.2],,10.1007/s11356-016-7564-6,Double anions
mp-390,TiO2,True,False,2.0586,-3.508055451944444,[3.2],,10.1007/s11356-017-0901-6,Double anions
mp-390,TiO2,True,False,2.0586,-3.508055451944444,[3.25],,10.1007/s11356-017-0901-6,Double anions
mp-390,TiO2,True,False,2.0586,-3.508055451944444,[3.14],,10.1007/s11356-017-8571-y,Double anions
mp-390,TiO2,True,False,2.0586,-3.508055451944444,[3.2],,10.1007/s11356-018-1224-y,Double anions
mp-390,TiO2,True,False,2.0586,-3.508055451944444,[2.91],,10.1007/s11356-018-1720-0,Double anions
mp-390,TiO2,True,False,2.0586,-3.508055451944444,[3.03],,10.1007/s11356-018-2114-z,Double anions
mp-390,TiO2,True,False,2.0586,-3.508055451944444,[3.05],,10.1007/s11356-018-2114-z,Double anions
mp-390,TiO2,True,False,2.0586,-3.508055451944444,[3.2],,10.1007/s11356-018-2314-6,Double anions
mp-390,TiO2,True,False,2.0586,-3.508055451944444,[3.2],,10.1007/s11356-019-04754-6,Double anions
mp-390,TiO2,True,False,2.0586,-3.508055451944444,[3.29],,10.1007/s11356-019-04754-6,Double anions
mp-390,TiO2,True,False,2.0586,-3.508055451944444,[3.2],,10.1007/s11356-019-05080-7,Double anions
mp-390,TiO2,True,False,2.0586,-3.508055451944444,[3.38],,10.1007/s11356-019-06703-9,Double anions
mp-390,TiO2,True,False,2.0586,-3.508055451944444,[3.2],,10.1007/s11356-019-07193-5,Double anions
mp-390,TiO2,True,False,2.0586,-3.508055451944444,[1.9],,10.1007/s11356-019-07567-9,Double anions
mp-390,TiO2,True,False,2.0586,-3.508055451944444,[3.2],,10.1007/s11356-020-10034-5,Double anions
mp-390,TiO2,True,False,2.0586,-3.508055451944444,[3.2],,10.1007/s11356-020-11222-z,Double anions
mp-390,TiO2,True,False,2.0586,-3.508055451944444,[3.0],,10.1007/s11434-014-0126-8,Double anions
mp-390,TiO2,True,False,2.0586,-3.508055451944444,[3.2],,10.1007/s11581-007-0107-x,Double anions
mp-390,TiO2,True,False,2.0586,-3.508055451944444,[3.2],,10.1007/s11581-015-1561-5,Double anions
mp-390,TiO2,True,False,2.0586,-3.508055451944444,[3.2],,10.1007/s11581-016-1762-6,Double anions
mp-390,TiO2,True,False,2.0586,-3.508055451944444,[3.2],,10.1007/s11581-019-02986-7,Double anions
mp-390,TiO2,True,False,2.0586,-3.508055451944444,[3.2],,10.1007/s11665-015-1699-3,Double anions
mp-390,TiO2,True,False,2.0586,-3.508055451944444,[3.2],,10.1007/s11671-010-9750-7,Double anions
mp-390,TiO2,True,False,2.0586,-3.508055451944444,[3.05],,10.1007/s11696-019-00804-y,Double anions
mp-390,TiO2,True,False,2.0586,-3.508055451944444,[3.2],,10.1007/s11696-019-00804-y,Double anions
mp-390,TiO2,True,False,2.0586,-3.508055451944444,[3.2],,10.1007/s11696-020-01118-0,Double anions
mp-390,TiO2,True,False,2.0586,-3.508055451944444,[3.15],,10.1007/s11696-020-01372-2,Double anions
mp-390,TiO2,True,False,2.0586,-3.508055451944444,[2.8],,10.1007/s11947-017-1889-0,Double anions
mp-390,TiO2,True,False,2.0586,-3.508055451944444,[1.95],,10.1007/s11998-017-9976-8,Double anions
mp-390,TiO2,True,False,2.0586,-3.508055451944444,[3.2],,10.1007/s12010-014-0999-7,Double anions
mp-390,TiO2,True,False,2.0586,-3.508055451944444,[3.05],,10.1007/s12034-016-1195-x,Double anions
mp-390,TiO2,True,False,2.0586,-3.508055451944444,[3.2],,10.1007/s12034-016-1215-x,Double anions
mp-390,TiO2,True,False,2.0586,-3.508055451944444,[3.2],,10.1007/s12034-018-1632-0,Double anions
mp-390,TiO2,True,False,2.0586,-3.508055451944444,[3.77],,10.1007/s12034-019-1821-5,Double anions
mp-390,TiO2,True,False,2.0586,-3.508055451944444,[3.26],,10.1007/s12034-019-1920-3,Double anions
mp-390,TiO2,True,False,2.0586,-3.508055451944444,[3.25],,10.1007/s12034-019-1920-3,Double anions
mp-390,TiO2,True,False,2.0586,-3.508055451944444,[3.2],,10.1007/s12034-020-2040-9,Double anions
mp-390,TiO2,True,False,2.0586,-3.508055451944444,[2.1],,10.1007/s12034-020-2040-9,Double anions
mp-390,TiO2,True,False,2.0586,-3.508055451944444,[3.2],,10.1007/s12046-019-1191-0,Double anions
mp-390,TiO2,True,False,2.0586,-3.508055451944444,[3.48],,10.1007/s12596-018-0507-5,Double anions
mp-390,TiO2,True,False,2.0586,-3.508055451944444,[3.2],,10.1007/s12596-018-0507-5,Double anions
mp-390,TiO2,True,False,2.0586,-3.508055451944444,[3.04],,10.1007/s12596-018-0507-5,Double anions
mp-390,TiO2,True,False,2.0586,-3.508055451944444,[3.2],,10.1007/s12598-019-01253-y,Double anions
mp-390,TiO2,True,False,2.0586,-3.508055451944444,[3.2],,10.1007/s12648-018-1275-4,Double anions
mp-390,TiO2,True,False,2.0586,-3.508055451944444,[3.05],,10.1007/s12648-018-1275-4,Double anions
mp-390,TiO2,True,False,2.0586,-3.508055451944444,[4.38],,10.1007/s12665-013-2836-7,Double anions
mp-390,TiO2,True,False,2.0586,-3.508055451944444,[1.68],,10.1007/s12665-013-2836-7,Double anions
mp-390,TiO2,True,False,2.0586,-3.508055451944444,[2.4],,10.1007/s12678-015-0259-9,Double anions
mp-390,TiO2,True,False,2.0586,-3.508055451944444,[1.5],,10.1007/s12678-015-0259-9,Double anions
mp-390,TiO2,True,False,2.0586,-3.508055451944444,[3.2],,10.1007/s13204-012-0084-x,Double anions
mp-390,TiO2,True,False,2.0586,-3.508055451944444,[3.2],,10.1007/s13204-015-0450-6,Double anions
mp-390,TiO2,True,False,2.0586,-3.508055451944444,[2.63],,10.1007/s13204-019-01157-4,Double anions
mp-390,TiO2,True,False,2.0586,-3.508055451944444,[3.2],,10.1007/s13204-019-01245-5,Double anions
mp-390,TiO2,True,False,2.0586,-3.508055451944444,[3.2],,10.1007/s13204-020-01283-4,Double anions
mp-390,TiO2,True,False,2.0586,-3.508055451944444,[3.25],,10.1007/s13204-020-01479-8,Double anions
mp-390,TiO2,True,False,2.0586,-3.508055451944444,[3.07],,10.1007/s13204-020-01479-8,Double anions
mp-390,TiO2,True,False,2.0586,-3.508055451944444,[3.0],,10.1007/s13738-018-1501-1,Double anions
mp-390,TiO2,True,False,2.0586,-3.508055451944444,[2.91],,10.1007/s13738-018-1501-1,Double anions
mp-390,TiO2,True,False,2.0586,-3.508055451944444,[2.9],,10.1007/s40094-018-0290-3,Double anions
mp-390,TiO2,True,False,2.0586,-3.508055451944444,[3.2],,10.1007/s40195-017-0664-6,Double anions
mp-390,TiO2,True,False,2.0586,-3.508055451944444,[3.26],,10.1007/s40195-017-0664-6,Double anions
mp-390,TiO2,True,False,2.0586,-3.508055451944444,[3.25],,10.1007/s40242-014-3320-y,Double anions
mp-390,TiO2,True,False,2.0586,-3.508055451944444,[3.2],,10.1007/s40243-014-0025-6,Double anions
mp-390,TiO2,True,False,2.0586,-3.508055451944444,[3.11],,10.1007/s40243-014-0025-6,Double anions
mp-390,TiO2,True,False,2.0586,-3.508055451944444,[3.2],,10.1007/s40820-018-0192-6,Double anions
mp-390,TiO2,True,False,2.0586,-3.508055451944444,[3.2],,10.1007/s41779-019-00350-6,Double anions
mp-390,TiO2,True,False,2.0586,-3.508055451944444,[3.32],,10.1007/s42114-020-00187-9,Double anions
mp-390,TiO2,True,False,2.0586,-3.508055451944444,[3.2],,10.1007/s42247-019-00029-5,Double anions
mp-390,TiO2,True,False,2.0586,-3.508055451944444,[3.1],,10.1007/s42452-019-0424-5,Double anions
mp-390,TiO2,True,False,2.0586,-3.508055451944444,[3.2],,10.1007/s42452-019-1157-1,Double anions
mp-390,TiO2,True,False,2.0586,-3.508055451944444,[2.98],800,10.1007/s42452-020-2554-1,Double anions
mp-390,TiO2,True,False,2.0586,-3.508055451944444,[3.2],600–700,10.1007/s42452-020-2554-1,Double anions
mp-390,TiO2,True,False,2.0586,-3.508055451944444,[3.2],,10.1007/s42452-020-2933-7,Double anions
mp-390,TiO2,True,False,2.0586,-3.508055451944444,[3.2],,10.1007/s42773-019-00006-5,Double anions
mp-390,TiO2,True,False,2.0586,-3.508055451944444,[1.62],,10.1038/s41467-018-05580-z,Double anions
mp-390,TiO2,True,False,2.0586,-3.508055451944444,[3.2],,10.1038/s41598-017-04398-x,Double anions
mp-390,TiO2,True,False,2.0586,-3.508055451944444,[3.11],,10.1038/s41598-017-04398-x,Double anions
mp-390,TiO2,True,False,2.0586,-3.508055451944444,[3.1],,10.1038/s41598-017-04398-x,Double anions
mp-390,TiO2,True,False,2.0586,-3.508055451944444,[3.2],,10.1038/s41598-017-08439-3,Double anions
mp-390,TiO2,True,False,2.0586,-3.508055451944444,[3.18],,10.1038/s41598-017-08439-3,Double anions
mp-390,TiO2,True,False,2.0586,-3.508055451944444,[3.2],,10.1038/s41598-017-12625-8,Double anions
mp-390,TiO2,True,False,2.0586,-3.508055451944444,[3.38],,10.1038/s41598-017-12625-8,Double anions
mp-390,TiO2,True,False,2.0586,-3.508055451944444,[3.2],,10.1038/s41598-017-17559-9,Double anions
mp-390,TiO2,True,False,2.0586,-3.508055451944444,[3.32],,10.1038/s41598-017-17559-9,Double anions
mp-390,TiO2,True,False,2.0586,-3.508055451944444,[3.2],,10.1038/s41598-017-18724-w,Double anions
mp-390,TiO2,True,False,2.0586,-3.508055451944444,[3.21],,10.1038/s41598-018-29563-8,Double anions
mp-390,TiO2,True,False,2.0586,-3.508055451944444,[3.2],,10.1038/s41598-018-29563-8,Double anions
mp-390,TiO2,True,False,2.0586,-3.508055451944444,[0.25],,10.1038/s41598-018-29935-0,Double anions
mp-390,TiO2,True,False,2.0586,-3.508055451944444,[3.2],,10.1038/s41598-018-30728-8,Double anions
mp-390,TiO2,True,False,2.0586,-3.508055451944444,[2.88],80,10.1038/s41598-018-34248-3,Double anions
mp-390,TiO2,True,False,2.0586,-3.508055451944444,[3.2],,10.1038/s41598-018-38358-w,Double anions
mp-390,TiO2,True,False,2.0586,-3.508055451944444,[5.81],,10.1038/s41598-019-41570-x,Double anions
mp-390,TiO2,True,False,2.0586,-3.508055451944444,[2.3],,10.1038/s41598-019-41570-x,Double anions
mp-390,TiO2,True,False,2.0586,-3.508055451944444,[3.2],,10.1038/s41598-019-54320-w,Double anions
mp-390,TiO2,True,False,2.0586,-3.508055451944444,[3.0],,10.1038/s41598-019-57407-6,Double anions
mp-390,TiO2,True,False,2.0586,-3.508055451944444,[3.2],,10.1038/srep02306,Double anions
mp-390,TiO2,True,False,2.0586,-3.508055451944444,[3.2],,10.1038/srep04426,Double anions
mp-390,TiO2,True,False,2.0586,-3.508055451944444,[0.1],,10.1038/srep04728,Double anions
mp-390,TiO2,True,False,2.0586,-3.508055451944444,[3.2],,10.1038/srep05721,Double anions
mp-390,TiO2,True,False,2.0586,-3.508055451944444,[3.2],,10.1038/srep12750,Double anions
mp-390,TiO2,True,False,2.0586,-3.508055451944444,[2.9],,10.1038/srep27549,Double anions
mp-390,TiO2,True,False,2.0586,-3.508055451944444,[1.58],,10.1134/S0030400X20050057,Double anions
mp-390,TiO2,True,False,2.0586,-3.508055451944444,[3.23],,10.1134/S0030400X20050057,Double anions
mp-390,TiO2,True,False,2.0586,-3.508055451944444,[3.2],300,10.1134/S1063783419080298,Double anions
mp-390,TiO2,True,False,2.0586,-3.508055451944444,[3.31],,10.1186/1556-276X-6-441,Double anions
mp-390,TiO2,True,False,2.0586,-3.508055451944444,[3.2],,10.1186/1556-276X-7-663,Double anions
mp-390,TiO2,True,False,2.0586,-3.508055451944444,[3.2],,10.1186/1556-276X-8-543,Double anions
mp-390,TiO2,True,False,2.0586,-3.508055451944444,[3.0],,10.1186/1556-276X-9-523,Double anions
mp-390,TiO2,True,False,2.0586,-3.508055451944444,[3.2],,10.1186/s11671-015-0901-8,Double anions
mp-390,TiO2,True,False,2.0586,-3.508055451944444,[3.2],,10.1186/s11671-015-1125-7,Double anions
mp-390,TiO2,True,False,2.0586,-3.508055451944444,[3.1],,10.1186/s11671-016-1733-x,Double anions
mp-390,TiO2,True,False,2.0586,-3.508055451944444,[3.2],,10.1186/s11671-017-2327-y,Double anions
mp-390,TiO2,True,False,2.0586,-3.508055451944444,[3.2],,10.1186/s11671-018-2443-3,Double anions
mp-390,TiO2,True,False,2.0586,-3.508055451944444,[3.64],,10.1186/s11671-018-2443-3,Double anions
mp-390,TiO2,True,False,2.0586,-3.508055451944444,[3.2],,10.1186/s40807-015-0015-z,Double anions
mp-390,TiO2,True,False,2.0586,-3.508055451944444,[3.7],,10.3365/eml.2010.06.077,Double anions
mp-390,TiO2,True,False,2.0586,-3.508055451944444,[3.4],,10.1007/s00170-006-0597-0,Double anions
mp-390,TiO2,True,False,2.0586,-3.508055451944444,[3.2],,10.1007/s00269-014-0686-9,Double anions
mp-390,TiO2,True,False,2.0586,-3.508055451944444,[3.05],,10.1007/s00339-013-7680-9,Double anions
mp-390,TiO2,True,False,2.0586,-3.508055451944444,[3.2],,10.1007/s00339-015-9399-2,Double anions
mp-390,TiO2,True,False,2.0586,-3.508055451944444,[3.2],,10.1007/s00339-016-9681-y,Double anions
mp-390,TiO2,True,False,2.0586,-3.508055451944444,[3.2],,10.1007/s00339-016-9965-2,Double anions
mp-390,TiO2,True,False,2.0586,-3.508055451944444,[3.2],,10.1007/s00339-017-0799-3,Double anions
mp-390,TiO2,True,False,2.0586,-3.508055451944444,[3.23],,10.1007/s00339-018-2009-3,Double anions
mp-390,TiO2,True,False,2.0586,-3.508055451944444,[3.02],,10.1007/s00339-019-2526-8,Double anions
mp-390,TiO2,True,False,2.0586,-3.508055451944444,[3.45],,10.1007/s00339-019-2858-4,Double anions
mp-390,TiO2,True,False,2.0586,-3.508055451944444,[3.44],,10.1007/s00339-020-03536-z,Double anions
mp-390,TiO2,True,False,2.0586,-3.508055451944444,[3.2],,10.1007/s00339-020-03790-1,Double anions
mp-390,TiO2,True,False,2.0586,-3.508055451944444,[2.57],,10.1007/s00339-020-03896-6,Double anions
mp-390,TiO2,True,False,2.0586,-3.508055451944444,[3.2],,10.1007/s00339-020-03914-7,Double anions
mp-390,TiO2,True,False,2.0586,-3.508055451944444,[3.0],,10.1007/s00339-020-03949-w,Double anions
mp-390,TiO2,True,False,2.0586,-3.508055451944444,[3.29],,10.1007/s00339-020-03949-w,Double anions
mp-390,TiO2,True,False,2.0586,-3.508055451944444,[3.17],,10.1007/s00339-020-03949-w,Double anions
mp-390,TiO2,True,False,2.0586,-3.508055451944444,[3.1],,10.1007/s00339-020-04131-y,Double anions
mp-390,TiO2,True,False,2.0586,-3.508055451944444,[3.2],,10.1007/s00396-015-3769-3,Double anions
mp-390,TiO2,True,False,2.0586,-3.508055451944444,[3.2],,10.1007/s00604-019-3566-7,Double anions
mp-390,TiO2,True,False,2.0586,-3.508055451944444,[3.2],,10.1007/s10008-015-2848-1,Double anions
mp-390,TiO2,True,False,2.0586,-3.508055451944444,[2.51],,10.1007/s10008-015-3057-7,Double anions
mp-390,TiO2,True,False,2.0586,-3.508055451944444,[3.17],,10.1007/s10008-017-3652-x,Double anions
mp-390,TiO2,True,False,2.0586,-3.508055451944444,[3.13],,10.1007/s10008-018-3890-6,Double anions
mp-390,TiO2,True,False,2.0586,-3.508055451944444,[2.5],,10.1007/s10008-018-4036-6,Double anions
mp-390,TiO2,True,False,2.0586,-3.508055451944444,[1.5],,10.1007/s10008-020-04555-9,Double anions
mp-390,TiO2,True,False,2.0586,-3.508055451944444,[1.72],,10.1007/s10008-020-04555-9,Double anions
mp-390,TiO2,True,False,2.0586,-3.508055451944444,[3.2],,10.1007/s10008-020-04846-1,Double anions
mp-390,TiO2,True,False,2.0586,-3.508055451944444,[3.2],,10.1007/s10098-019-01766-1,Double anions
mp-390,TiO2,True,False,2.0586,-3.508055451944444,[3.2],,10.1007/s10311-020-01131-5,Double anions
mp-390,TiO2,True,False,2.0586,-3.508055451944444,[2.2],,10.1007/s10311-020-01131-5,Double anions
mp-390,TiO2,True,False,2.0586,-3.508055451944444,[3.0],,10.1007/s10450-019-00150-1,Double anions
mp-390,TiO2,True,False,2.0586,-3.508055451944444,[3.483],,10.1007/s10450-019-00150-1,Double anions
mp-390,TiO2,True,False,2.0586,-3.508055451944444,[2.54],,10.1007/s10450-019-00150-1,Double anions
mp-390,TiO2,True,False,2.0586,-3.508055451944444,[0.54],,10.1007/s10562-008-9568-4,Double anions
mp-390,TiO2,True,False,2.0586,-3.508055451944444,[3.2],,10.1007/s10562-008-9730-z,Double anions
mp-390,TiO2,True,False,2.0586,-3.508055451944444,[3.2],,10.1007/s10562-010-0434-9,Double anions
mp-390,TiO2,True,False,2.0586,-3.508055451944444,[3.14],,10.1007/s10562-020-03431-5,Double anions
mp-390,TiO2,True,False,2.0586,-3.508055451944444,[3.2],,10.1007/s10563-019-09279-z,Double anions
mp-390,TiO2,True,False,2.0586,-3.508055451944444,[3.2],,10.1007/s10570-014-0482-1,Double anions
mp-390,TiO2,True,False,2.0586,-3.508055451944444,[3.2],,10.1007/s10800-016-0972-y,Double anions
mp-390,TiO2,True,False,2.0586,-3.508055451944444,[3.2],,10.1007/s10853-006-0574-x,Double anions
mp-390,TiO2,True,False,2.0586,-3.508055451944444,[3.2],,10.1007/s10853-010-4646-6,Double anions
mp-390,TiO2,True,False,2.0586,-3.508055451944444,[3.0],,10.1007/s10853-010-4685-z,Double anions
mp-390,TiO2,True,False,2.0586,-3.508055451944444,[3.0],,10.1007/s10853-012-6888-y,Double anions
mp-390,TiO2,True,False,2.0586,-3.508055451944444,[2.2],,10.1007/s10853-013-7366-x,Double anions
mp-390,TiO2,True,False,2.0586,-3.508055451944444,[3.2],,10.1007/s10853-013-7617-x,Double anions
mp-390,TiO2,True,False,2.0586,-3.508055451944444,[3.2],,10.1007/s10853-015-9521-z,Double anions
mp-390,TiO2,True,False,2.0586,-3.508055451944444,[3.33],650,10.1007/s10853-016-0404-8,Double anions
mp-390,TiO2,True,False,2.0586,-3.508055451944444,[3.2],,10.1007/s10853-016-9988-2,Double anions
mp-390,TiO2,True,False,2.0586,-3.508055451944444,[2.98],,10.1007/s10853-017-1107-5,Double anions
mp-390,TiO2,True,False,2.0586,-3.508055451944444,[3.2],,10.1007/s10853-018-2079-9,Double anions
mp-390,TiO2,True,False,2.0586,-3.508055451944444,[3.2],,10.1007/s10853-018-2316-2,Double anions
mp-390,TiO2,True,False,2.0586,-3.508055451944444,[3.2],,10.1007/s10853-019-03466-z,Double anions
mp-390,TiO2,True,False,2.0586,-3.508055451944444,[3.2],,10.1007/s10853-019-03636-z,Double anions
mp-390,TiO2,True,False,2.0586,-3.508055451944444,[2.2],,10.1007/s10853-019-04155-7,Double anions
mp-390,TiO2,True,False,2.0586,-3.508055451944444,[3.21],,10.1007/s10853-020-04355-6,Double anions
mp-390,TiO2,True,False,2.0586,-3.508055451944444,[3.2],,10.1007/s10854-010-0218-4,Double anions
mp-390,TiO2,True,False,2.0586,-3.508055451944444,[2.13],,10.1007/s10854-010-0218-4,Double anions
mp-390,TiO2,True,False,2.0586,-3.508055451944444,[3.26],,10.1007/s10854-011-0403-0,Double anions
mp-390,TiO2,True,False,2.0586,-3.508055451944444,[3.3],,10.1007/s10854-014-2304-5,Double anions
mp-390,TiO2,True,False,2.0586,-3.508055451944444,[3.05],,10.1007/s10854-014-2402-4,Double anions
mp-390,TiO2,True,False,2.0586,-3.508055451944444,[3.2],,10.1007/s10854-014-2450-9,Double anions
mp-390,TiO2,True,False,2.0586,-3.508055451944444,[3.2],,10.1007/s10854-014-2575-x,Double anions
mp-390,TiO2,True,False,2.0586,-3.508055451944444,[2.97],,10.1007/s10854-014-2575-x,Double anions
mp-390,TiO2,True,False,2.0586,-3.508055451944444,[3.2],,10.1007/s10854-014-2649-9,Double anions
mp-390,TiO2,True,False,2.0586,-3.508055451944444,[3.2],,10.1007/s10854-015-3453-x,Double anions
mp-390,TiO2,True,False,2.0586,-3.508055451944444,[2.9],800,10.1007/s10854-015-3453-x,Double anions
mp-390,TiO2,True,False,2.0586,-3.508055451944444,[3.23],,10.1007/s10854-015-3453-x,Double anions
mp-390,TiO2,True,False,2.0586,-3.508055451944444,[2.9],,10.1007/s10854-015-3453-x,Double anions
mp-390,TiO2,True,False,2.0586,-3.508055451944444,[3.2],,10.1007/s10854-015-3774-9,Double anions
mp-390,TiO2,True,False,2.0586,-3.508055451944444,[2.99],,10.1007/s10854-015-3979-y,Double anions
mp-390,TiO2,True,False,2.0586,-3.508055451944444,[3.2],,10.1007/s10854-015-4197-3,Double anions
mp-390,TiO2,True,False,2.0586,-3.508055451944444,[3.3],,10.1007/s10854-016-4361-4,Double anions
mp-390,TiO2,True,False,2.0586,-3.508055451944444,[3.71],,10.1007/s10854-016-5310-y,Double anions
mp-390,TiO2,True,False,2.0586,-3.508055451944444,[3.15],,10.1007/s10854-016-5353-0,Double anions
mp-390,TiO2,True,False,2.0586,-3.508055451944444,[3.2],,10.1007/s10854-016-5353-0,Double anions
mp-390,TiO2,True,False,2.0586,-3.508055451944444,[1.8],,10.1007/s10854-016-5353-0,Double anions
mp-390,TiO2,True,False,2.0586,-3.508055451944444,[3.2],,10.1007/s10854-016-5736-2,Double anions
mp-390,TiO2,True,False,2.0586,-3.508055451944444,[3.2],,10.1007/s10854-016-5925-z,Double anions
mp-390,TiO2,True,False,2.0586,-3.508055451944444,[3.2],,10.1007/s10854-016-5940-0,Double anions