mpids,formula,is_stable,theoretical,band_gap,formation_energy_per_atom,Value,Temperature_raw_value,DOI,compound_type
mp-390,TiO2,True,False,2.0586,-3.508055451944444,[2.81],,10.1007/s10854-016-5940-0,Double anions
mp-390,TiO2,True,False,2.0586,-3.508055451944444,[3.2],,10.1007/s10854-016-6097-6,Double anions
mp-390,TiO2,True,False,2.0586,-3.508055451944444,[2.34],,10.1007/s10854-016-6097-6,Double anions
mp-390,TiO2,True,False,2.0586,-3.508055451944444,[3.02],,10.1007/s10854-016-6192-8,Double anions
mp-390,TiO2,True,False,2.0586,-3.508055451944444,[3.02],,10.1007/s10854-016-6320-5,Double anions
mp-390,TiO2,True,False,2.0586,-3.508055451944444,[3.35],550,10.1007/s10854-016-6328-x,Double anions
mp-390,TiO2,True,False,2.0586,-3.508055451944444,[3.2],,10.1007/s10854-017-6609-z,Double anions
mp-390,TiO2,True,False,2.0586,-3.508055451944444,[3.2],,10.1007/s10854-017-6640-0,Double anions
mp-390,TiO2,True,False,2.0586,-3.508055451944444,[3.2],,10.1007/s10854-017-6694-z,Double anions
mp-390,TiO2,True,False,2.0586,-3.508055451944444,[3.16],,10.1007/s10854-017-6694-z,Double anions
mp-390,TiO2,True,False,2.0586,-3.508055451944444,[3.2],,10.1007/s10854-017-6725-9,Double anions
mp-390,TiO2,True,False,2.0586,-3.508055451944444,[3.2],,10.1007/s10854-017-6817-6,Double anions
mp-390,TiO2,True,False,2.0586,-3.508055451944444,[2.78],,10.1007/s10854-017-6817-6,Double anions
mp-390,TiO2,True,False,2.0586,-3.508055451944444,[2.65],,10.1007/s10854-017-7211-0,Double anions
mp-390,TiO2,True,False,2.0586,-3.508055451944444,[3.71],,10.1007/s10854-017-7309-4,Double anions
mp-390,TiO2,True,False,2.0586,-3.508055451944444,[3.2],,10.1007/s10854-017-7429-x,Double anions
mp-390,TiO2,True,False,2.0586,-3.508055451944444,[3.2],,10.1007/s10854-017-7519-9,Double anions
mp-390,TiO2,True,False,2.0586,-3.508055451944444,[3.2],,10.1007/s10854-017-8128-3,Double anions
mp-390,TiO2,True,False,2.0586,-3.508055451944444,[3.22],,10.1007/s10854-017-8375-3,Double anions
mp-390,TiO2,True,False,2.0586,-3.508055451944444,[3.39],,10.1007/s10854-018-0121-y,Double anions
mp-390,TiO2,True,False,2.0586,-3.508055451944444,[2.65],,10.1007/s10854-018-0205-8,Double anions
mp-390,TiO2,True,False,2.0586,-3.508055451944444,[3.31],,10.1007/s10854-018-0228-1,Double anions
mp-390,TiO2,True,False,2.0586,-3.508055451944444,[3.2],,10.1007/s10854-018-0363-8,Double anions
mp-390,TiO2,True,False,2.0586,-3.508055451944444,[3.25],,10.1007/s10854-018-0363-8,Double anions
mp-390,TiO2,True,False,2.0586,-3.508055451944444,[2.14],,10.1007/s10854-018-0363-8,Double anions
mp-390,TiO2,True,False,2.0586,-3.508055451944444,[3.2],,10.1007/s10854-018-8764-2,Double anions
mp-390,TiO2,True,False,2.0586,-3.508055451944444,[3.2],,10.1007/s10854-018-8883-9,Double anions
mp-390,TiO2,True,False,2.0586,-3.508055451944444,[3.21],,10.1007/s10854-018-8910-x,Double anions
mp-390,TiO2,True,False,2.0586,-3.508055451944444,[3.0],,10.1007/s10854-018-9316-5,Double anions
mp-390,TiO2,True,False,2.0586,-3.508055451944444,[3.2],300,10.1007/s10854-018-9348-x,Double anions
mp-390,TiO2,True,False,2.0586,-3.508055451944444,[3.1],,10.1007/s10854-018-9445-x,Double anions
mp-390,TiO2,True,False,2.0586,-3.508055451944444,[3.2],,10.1007/s10854-018-9610-2,Double anions
mp-390,TiO2,True,False,2.0586,-3.508055451944444,[3.2],,10.1007/s10854-018-9622-y,Double anions
mp-390,TiO2,True,False,2.0586,-3.508055451944444,[3.2],,10.1007/s10854-019-01142-1,Double anions
mp-390,TiO2,True,False,2.0586,-3.508055451944444,[2.95],,10.1007/s10854-019-01142-1,Double anions
mp-390,TiO2,True,False,2.0586,-3.508055451944444,[2.93],,10.1007/s10854-019-01167-6,Double anions
mp-390,TiO2,True,False,2.0586,-3.508055451944444,[3.2],,10.1007/s10854-019-01859-z,Double anions
mp-390,TiO2,True,False,2.0586,-3.508055451944444,[3.2],,10.1007/s10854-019-02743-6,Double anions
mp-390,TiO2,True,False,2.0586,-3.508055451944444,[3.2],,10.1007/s10854-019-02820-w,Double anions
mp-390,TiO2,True,False,2.0586,-3.508055451944444,[3.16],,10.1007/s10854-020-03156-6,Double anions
mp-390,TiO2,True,False,2.0586,-3.508055451944444,[3.2],,10.1007/s10854-020-03156-6,Double anions
mp-390,TiO2,True,False,2.0586,-3.508055451944444,[3.2],,10.1007/s10854-020-03604-3,Double anions
mp-390,TiO2,True,False,2.0586,-3.508055451944444,[3.2],,10.1007/s10854-020-04217-6,Double anions
mp-390,TiO2,True,False,2.0586,-3.508055451944444,[3.17],,10.1007/s10854-020-04217-6,Double anions
mp-390,TiO2,True,False,2.0586,-3.508055451944444,[3.2],,10.1007/s10876-013-0576-1,Double anions
mp-390,TiO2,True,False,2.0586,-3.508055451944444,[3.2],,10.1007/s10876-016-1044-5,Double anions
mp-390,TiO2,True,False,2.0586,-3.508055451944444,[3.0],,10.1007/s10876-018-1401-7,Double anions
mp-390,TiO2,True,False,2.0586,-3.508055451944444,[3.2],,10.1007/s10904-014-0072-6,Double anions
mp-390,TiO2,True,False,2.0586,-3.508055451944444,[3.2],,10.1007/s10904-017-0731-5,Double anions
mp-390,TiO2,True,False,2.0586,-3.508055451944444,[3.0],,10.1007/s10904-018-0832-9,Double anions
mp-390,TiO2,True,False,2.0586,-3.508055451944444,[3.2],,10.1007/s10904-019-01092-5,Double anions
mp-390,TiO2,True,False,2.0586,-3.508055451944444,[3.2],,10.1007/s10904-019-01102-6,Double anions
mp-390,TiO2,True,False,2.0586,-3.508055451944444,[3.2],,10.1007/s10904-019-01254-5,Double anions
mp-390,TiO2,True,False,2.0586,-3.508055451944444,[3.2],,10.1007/s10904-019-01333-7,Double anions
mp-390,TiO2,True,False,2.0586,-3.508055451944444,[3.0],,10.1007/s10904-020-01797-y,Double anions
mp-390,TiO2,True,False,2.0586,-3.508055451944444,[3.72],,10.1007/s10904-020-01797-y,Double anions
mp-390,TiO2,True,False,2.0586,-3.508055451944444,[3.4],,10.1007/s10934-009-9314-3,Double anions
mp-390,TiO2,True,False,2.0586,-3.508055451944444,[3.4],,10.1007/s10934-013-9748-5,Double anions
mp-390,TiO2,True,False,2.0586,-3.508055451944444,[3.2],,10.1007/s10934-014-9904-6,Double anions
mp-390,TiO2,True,False,2.0586,-3.508055451944444,[3.2],,10.1007/s10934-016-0190-3,Double anions
mp-390,TiO2,True,False,2.0586,-3.508055451944444,[3.1],,10.1007/s10934-019-00792-0,Double anions
mp-390,TiO2,True,False,2.0586,-3.508055451944444,[3.0],,10.1007/s10948-013-2439-2,Double anions
mp-390,TiO2,True,False,2.0586,-3.508055451944444,[3.2],,10.1007/s10967-019-06726-z,Double anions
mp-390,TiO2,True,False,2.0586,-3.508055451944444,[3.03],,10.1007/s10971-010-2167-z,Double anions
mp-390,TiO2,True,False,2.0586,-3.508055451944444,[3.32],400,10.1007/s10971-010-2269-7,Double anions
mp-390,TiO2,True,False,2.0586,-3.508055451944444,[2.72],800,10.1007/s10971-010-2297-3,Double anions
mp-390,TiO2,True,False,2.0586,-3.508055451944444,[3.2],,10.1007/s10971-011-2497-5,Double anions
mp-390,TiO2,True,False,2.0586,-3.508055451944444,[3.4],,10.1007/s10971-011-2553-1,Double anions
mp-390,TiO2,True,False,2.0586,-3.508055451944444,[3.21],,10.1007/s10971-011-2582-9,Double anions
mp-390,TiO2,True,False,2.0586,-3.508055451944444,[3.56],,10.1007/s10971-011-2582-9,Double anions
mp-390,TiO2,True,False,2.0586,-3.508055451944444,[3.2],,10.1007/s10971-012-2925-1,Double anions
mp-390,TiO2,True,False,2.0586,-3.508055451944444,[3.2],,10.1007/s10971-013-3150-2,Double anions
mp-390,TiO2,True,False,2.0586,-3.508055451944444,[3.2],,10.1007/s10971-014-3496-0,Double anions
mp-390,TiO2,True,False,2.0586,-3.508055451944444,[3.2],,10.1007/s10971-015-3693-5,Double anions
mp-390,TiO2,True,False,2.0586,-3.508055451944444,[3.2],,10.1007/s10971-015-3819-9,Double anions
mp-390,TiO2,True,False,2.0586,-3.508055451944444,[3.1],,10.1007/s10971-015-3819-9,Double anions
mp-390,TiO2,True,False,2.0586,-3.508055451944444,[2.98],,10.1007/s10971-016-4104-2,Double anions
mp-390,TiO2,True,False,2.0586,-3.508055451944444,[2.94],,10.1007/s10971-017-4379-y,Double anions
mp-390,TiO2,True,False,2.0586,-3.508055451944444,[2.0],,10.1007/s10971-017-4379-y,Double anions
mp-390,TiO2,True,False,2.0586,-3.508055451944444,[3.2],,10.1007/s10971-017-4422-z,Double anions
mp-390,TiO2,True,False,2.0586,-3.508055451944444,[3.2],,10.1007/s10971-017-4471-3,Double anions
mp-390,TiO2,True,False,2.0586,-3.508055451944444,[2.85],,10.1007/s10971-019-05045-9,Double anions
mp-390,TiO2,True,False,2.0586,-3.508055451944444,[2.96],,10.1007/s10971-019-05045-9,Double anions
mp-390,TiO2,True,False,2.0586,-3.508055451944444,[3.2],,10.1007/s10971-019-05172-3,Double anions
mp-390,TiO2,True,False,2.0586,-3.508055451944444,[3.0],,10.1007/s11051-007-9241-7,Double anions
mp-390,TiO2,True,False,2.0586,-3.508055451944444,[1.26],,10.1007/s11051-007-9241-7,Double anions
mp-390,TiO2,True,False,2.0586,-3.508055451944444,[3.1],,10.1007/s11051-011-0245-y,Double anions
mp-390,TiO2,True,False,2.0586,-3.508055451944444,[3.0],,10.1007/s11051-013-1643-0,Double anions
mp-390,TiO2,True,False,2.0586,-3.508055451944444,[3.2],,10.1007/s11051-013-1669-3,Double anions
mp-390,TiO2,True,False,2.0586,-3.508055451944444,[0.0],,10.1007/s11051-013-2143-y,Double anions
mp-390,TiO2,True,False,2.0586,-3.508055451944444,[3.2],,10.1007/s11051-013-2203-3,Double anions
mp-390,TiO2,True,False,2.0586,-3.508055451944444,[3.17],,10.1007/s11051-014-2632-7,Double anions
mp-390,TiO2,True,False,2.0586,-3.508055451944444,[3.2],,10.1007/s11051-016-3336-y,Double anions
mp-390,TiO2,True,False,2.0586,-3.508055451944444,[3.2],,10.1007/s11051-016-3596-6,Double anions
mp-390,TiO2,True,False,2.0586,-3.508055451944444,[2.85],,10.1007/s11051-017-3765-2,Double anions
mp-390,TiO2,True,False,2.0586,-3.508055451944444,[0.2],,10.1007/s11051-017-3765-2,Double anions
mp-390,TiO2,True,False,2.0586,-3.508055451944444,[3.2],,10.1007/s11051-017-3842-6,Double anions
mp-390,TiO2,True,False,2.0586,-3.508055451944444,[3.2],,10.1007/s11051-018-4213-7,Double anions
mp-390,TiO2,True,False,2.0586,-3.508055451944444,[3.05],,10.1007/s11051-019-4470-0,Double anions
mp-390,TiO2,True,False,2.0586,-3.508055451944444,[3.3],,10.1007/s11051-019-4670-7,Double anions
mp-390,TiO2,True,False,2.0586,-3.508055451944444,[3.08],,10.1007/s11051-020-4757-1,Double anions
mp-390,TiO2,True,False,2.0586,-3.508055451944444,[3.2],,10.1007/s11090-013-9455-7,Double anions
mp-390,TiO2,True,False,2.0586,-3.508055451944444,[3.39],,10.1007/s11090-018-9919-x,Double anions
mp-390,TiO2,True,False,2.0586,-3.508055451944444,[3.2],,10.1007/s11144-012-0434-4,Double anions
mp-390,TiO2,True,False,2.0586,-3.508055451944444,[3.2],,10.1007/s11144-013-0585-y,Double anions
mp-390,TiO2,True,False,2.0586,-3.508055451944444,[3.2],,10.1007/s11144-015-0870-z,Double anions
mp-390,TiO2,True,False,2.0586,-3.508055451944444,[3.2],,10.1007/s11144-016-1007-8,Double anions
mp-390,TiO2,True,False,2.0586,-3.508055451944444,[2.8],,10.1007/s11144-016-1128-0,Double anions
mp-390,TiO2,True,False,2.0586,-3.508055451944444,[5.81],,10.1007/s11144-019-01564-2,Double anions
mp-390,TiO2,True,False,2.0586,-3.508055451944444,[3.13],,10.1007/s11144-019-01564-2,Double anions
mp-390,TiO2,True,False,2.0586,-3.508055451944444,[3.2],,10.1007/s11144-020-01756-1,Double anions
mp-390,TiO2,True,False,2.0586,-3.508055451944444,[3.2],,10.1007/s11164-009-0026-8,Double anions
mp-390,TiO2,True,False,2.0586,-3.508055451944444,[3.2],,10.1007/s11164-009-0105-x,Double anions
mp-390,TiO2,True,False,2.0586,-3.508055451944444,[3.2],,10.1007/s11164-010-0117-6,Double anions
mp-390,TiO2,True,False,2.0586,-3.508055451944444,[3.2],,10.1007/s11164-011-0419-3,Double anions
mp-390,TiO2,True,False,2.0586,-3.508055451944444,[3.2],,10.1007/s11164-015-2050-1,Double anions
mp-390,TiO2,True,False,2.0586,-3.508055451944444,[2.88],,10.1007/s11164-015-2179-y,Double anions
mp-390,TiO2,True,False,2.0586,-3.508055451944444,[2.83],,10.1007/s11164-015-2179-y,Double anions
mp-390,TiO2,True,False,2.0586,-3.508055451944444,[3.2],,10.1007/s11164-015-2234-8,Double anions
mp-390,TiO2,True,False,2.0586,-3.508055451944444,[3.2],,10.1007/s11164-015-2253-5,Double anions
mp-390,TiO2,True,False,2.0586,-3.508055451944444,[2.9],,10.1007/s11164-016-2692-7,Double anions
mp-390,TiO2,True,False,2.0586,-3.508055451944444,[3.2],,10.1007/s11164-016-2692-7,Double anions
mp-390,TiO2,True,False,2.0586,-3.508055451944444,[2.95],,10.1007/s11164-017-3005-5,Double anions
mp-390,TiO2,True,False,2.0586,-3.508055451944444,[3.22],,10.1007/s11164-017-3005-5,Double anions
mp-390,TiO2,True,False,2.0586,-3.508055451944444,[3.2],,10.1007/s11164-018-3531-9,Double anions
mp-390,TiO2,True,False,2.0586,-3.508055451944444,[3.19],,10.1007/s11164-018-3556-0,Double anions
mp-390,TiO2,True,False,2.0586,-3.508055451944444,[3.1],,10.1007/s11164-018-3556-0,Double anions
mp-390,TiO2,True,False,2.0586,-3.508055451944444,[3.2],,10.1007/s11164-018-3706-4,Double anions
mp-390,TiO2,True,False,2.0586,-3.508055451944444,[3.2],,10.1007/s11164-019-03909-x,Double anions
mp-390,TiO2,True,False,2.0586,-3.508055451944444,[3.2],,10.1007/s11164-019-03952-8,Double anions
mp-390,TiO2,True,False,2.0586,-3.508055451944444,[3.2],,10.1007/s11243-010-9414-6,Double anions
mp-390,TiO2,True,False,2.0586,-3.508055451944444,[3.2],,10.1007/s11244-007-9025-4,Double anions
mp-390,TiO2,True,False,2.0586,-3.508055451944444,[3.2],,10.1007/s11244-010-9490-z,Double anions
mp-390,TiO2,True,False,2.0586,-3.508055451944444,[3.2],,10.1007/s11244-013-0069-3,Double anions
mp-390,TiO2,True,False,2.0586,-3.508055451944444,[3.2],,10.1007/s11244-014-0279-3,Double anions
mp-390,TiO2,True,False,2.0586,-3.508055451944444,[3.2],,10.1007/s11244-020-01319-7,Double anions
mp-390,TiO2,True,False,2.0586,-3.508055451944444,[3.3],,10.1007/s11244-020-01319-7,Double anions
mp-390,TiO2,True,False,2.0586,-3.508055451944444,[3.2],,10.1007/s11270-011-0957-8,Double anions
mp-390,TiO2,True,False,2.0586,-3.508055451944444,[3.2],,10.1007/s11270-013-1529-x,Double anions
mp-390,TiO2,True,False,2.0586,-3.508055451944444,[3.22],,10.1007/s11270-013-1529-x,Double anions
mp-390,TiO2,True,False,2.0586,-3.508055451944444,[3.2],,10.1007/s11270-016-2822-2,Double anions
mp-390,TiO2,True,False,2.0586,-3.508055451944444,[3.2],,10.1007/s11270-017-3560-9,Double anions
mp-390,TiO2,True,False,2.0586,-3.508055451944444,[3.2],,10.1007/s11270-020-4461-x,Double anions
mp-390,TiO2,True,False,2.0586,-3.508055451944444,[3.2],,10.1007/s11356-014-2683-4,Double anions
mp-390,TiO2,True,False,2.0586,-3.508055451944444,[3.2],,10.1007/s11356-014-3176-1,Double anions
mp-390,TiO2,True,False,2.0586,-3.508055451944444,[3.04],,10.1007/s11356-015-5738-2,Double anions
mp-390,TiO2,True,False,2.0586,-3.508055451944444,[3.2],,10.1007/s11356-016-8034-x,Double anions
mp-390,TiO2,True,False,2.0586,-3.508055451944444,[3.2],,10.1007/s11356-018-1346-2,Double anions
mp-390,TiO2,True,False,2.0586,-3.508055451944444,[1.15],,10.1007/s11356-018-1346-2,Double anions
mp-390,TiO2,True,False,2.0586,-3.508055451944444,[3.2],,10.1007/s11356-018-2858-5,Double anions
mp-390,TiO2,True,False,2.0586,-3.508055451944444,[3.2],,10.1007/s11356-019-06727-1,Double anions
mp-390,TiO2,True,False,2.0586,-3.508055451944444,[3.2],,10.1007/s11356-019-07568-8,Double anions
mp-390,TiO2,True,False,2.0586,-3.508055451944444,[3.2],,10.1007/s11356-020-07959-2,Double anions
mp-390,TiO2,True,False,2.0586,-3.508055451944444,[2.1],,10.1007/s11356-020-07959-2,Double anions
mp-390,TiO2,True,False,2.0586,-3.508055451944444,[3.37],,10.1007/s11356-020-08424-w,Double anions
mp-390,TiO2,True,False,2.0586,-3.508055451944444,[3.2],,10.1007/s11356-020-09381-0,Double anions
mp-390,TiO2,True,False,2.0586,-3.508055451944444,[2.84],,10.1007/s11356-020-09381-0,Double anions
mp-390,TiO2,True,False,2.0586,-3.508055451944444,[3.5],,10.1007/s11356-020-09381-0,Double anions
mp-390,TiO2,True,False,2.0586,-3.508055451944444,[2.2],,10.1007/s11356-020-09381-0,Double anions
mp-390,TiO2,True,False,2.0586,-3.508055451944444,[3.4],,10.1007/s11356-020-11262-5,Double anions
mp-390,TiO2,True,False,2.0586,-3.508055451944444,[1.88],,10.1007/s11356-020-11664-5,Double anions
mp-390,TiO2,True,False,2.0586,-3.508055451944444,[3.2],,10.1007/s11434-016-1120-0,Double anions
mp-390,TiO2,True,False,2.0586,-3.508055451944444,[2.3],,10.1007/s11581-009-0346-0,Double anions
mp-390,TiO2,True,False,2.0586,-3.508055451944444,[3.0],,10.1007/s11581-012-0785-x,Double anions
mp-390,TiO2,True,False,2.0586,-3.508055451944444,[3.0],,10.1007/s11581-016-1711-4,Double anions
mp-390,TiO2,True,False,2.0586,-3.508055451944444,[3.0],,10.1007/s11581-017-2162-2,Double anions
mp-390,TiO2,True,False,2.0586,-3.508055451944444,[3.2],,10.1007/s11581-017-2394-1,Double anions
mp-390,TiO2,True,False,2.0586,-3.508055451944444,[3.2],,10.1007/s11581-020-03655-w,Double anions
mp-390,TiO2,True,False,2.0586,-3.508055451944444,[3.3],,10.1007/s11581-020-03655-w,Double anions
mp-390,TiO2,True,False,2.0586,-3.508055451944444,[3.52],,10.1007/s11661-015-3040-z,Double anions
mp-390,TiO2,True,False,2.0586,-3.508055451944444,[3.2],,10.1007/s11665-009-9490-y,Double anions
mp-390,TiO2,True,False,2.0586,-3.508055451944444,[3.0],,10.1007/s11666-009-9369-3,Double anions
mp-390,TiO2,True,False,2.0586,-3.508055451944444,[3.03],,10.1007/s11666-014-0090-5,Double anions
mp-390,TiO2,True,False,2.0586,-3.508055451944444,[3.0],,10.1007/s11671-009-9274-1,Double anions
mp-390,TiO2,True,False,2.0586,-3.508055451944444,[4.1],,10.1007/s11671-009-9274-1,Double anions
mp-390,TiO2,True,False,2.0586,-3.508055451944444,[3.2],,10.1007/s11696-016-0095-2,Double anions
mp-390,TiO2,True,False,2.0586,-3.508055451944444,[2.92],,10.1007/s11696-016-0095-2,Double anions
mp-390,TiO2,True,False,2.0586,-3.508055451944444,[3.2],,10.1007/s11696-018-0621-5,Double anions
mp-390,TiO2,True,False,2.0586,-3.508055451944444,[3.2],,10.1007/s11696-019-00822-w,Double anions
mp-390,TiO2,True,False,2.0586,-3.508055451944444,[3.2],,10.1007/s12010-012-9847-9,Double anions
mp-390,TiO2,True,False,2.0586,-3.508055451944444,[3.2],,10.1007/s12034-014-0831-6,Double anions
mp-390,TiO2,True,False,2.0586,-3.508055451944444,[3.54],,10.1007/s12034-014-0831-6,Double anions
mp-390,TiO2,True,False,2.0586,-3.508055451944444,[3.16],,10.1007/s12034-014-0831-6,Double anions
mp-390,TiO2,True,False,2.0586,-3.508055451944444,[3.2],,10.1007/s12034-016-1158-2,Double anions
mp-390,TiO2,True,False,2.0586,-3.508055451944444,[3.2],,10.1007/s12034-017-1532-8,Double anions
mp-390,TiO2,True,False,2.0586,-3.508055451944444,[3.2],,10.1007/s12034-020-2041-8,Double anions
mp-390,TiO2,True,False,2.0586,-3.508055451944444,[2.86],,10.1007/s12648-014-0475-9,Double anions
mp-390,TiO2,True,False,2.0586,-3.508055451944444,[3.37],,10.1007/s12666-017-1264-x,Double anions
mp-390,TiO2,True,False,2.0586,-3.508055451944444,[3.2],,10.1007/s12668-012-0057-2,Double anions
mp-390,TiO2,True,False,2.0586,-3.508055451944444,[3.2],,10.1007/s12678-015-0278-6,Double anions
mp-390,TiO2,True,False,2.0586,-3.508055451944444,[3.35],,10.1007/s13201-014-0223-5,Double anions
mp-390,TiO2,True,False,2.0586,-3.508055451944444,[2.9],,10.1007/s13204-013-0259-0,Double anions
mp-390,TiO2,True,False,2.0586,-3.508055451944444,[3.58],,10.1007/s13204-014-0337-y,Double anions
mp-390,TiO2,True,False,2.0586,-3.508055451944444,[3.2],600,10.1007/s13204-018-0783-z,Double anions
mp-390,TiO2,True,False,2.0586,-3.508055451944444,[3.31],,10.1007/s13204-018-0819-4,Double anions
mp-390,TiO2,True,False,2.0586,-3.508055451944444,[3.2],,10.1007/s13204-018-0891-9,Double anions
mp-390,TiO2,True,False,2.0586,-3.508055451944444,[3.2],,10.1007/s13204-019-01206-y,Double anions
mp-390,TiO2,True,False,2.0586,-3.508055451944444,[3.2],,10.1007/s13369-020-04957-x,Double anions
mp-390,TiO2,True,False,2.0586,-3.508055451944444,[3.21],,10.1007/s13369-020-04957-x,Double anions
mp-390,TiO2,True,False,2.0586,-3.508055451944444,[3.7],,10.1007/s13369-020-04957-x,Double anions
mp-390,TiO2,True,False,2.0586,-3.508055451944444,[2.6],,10.1007/s13391-018-0060-z,Double anions
mp-390,TiO2,True,False,2.0586,-3.508055451944444,[3.2],,10.1007/s13391-018-0060-z,Double anions
mp-390,TiO2,True,False,2.0586,-3.508055451944444,[3.2],,10.1007/s13738-017-1252-4,Double anions
mp-390,TiO2,True,False,2.0586,-3.508055451944444,[3.2],,10.1007/s13762-013-0218-z,Double anions
mp-390,TiO2,True,False,2.0586,-3.508055451944444,[3.2],,10.1007/s13762-018-1950-1,Double anions