mpids,formula,is_stable,theoretical,band_gap,formation_energy_per_atom,Value,Temperature_raw_value,DOI,compound_type
mp-390,TiO2,True,False,2.0586,-3.508055451944444,[3.2],,10.1039/c1cp21547g,Double anions
mp-390,TiO2,True,False,2.0586,-3.508055451944444,[3.9],,10.1039/c1cp21547g,Double anions
mp-390,TiO2,True,False,2.0586,-3.508055451944444,[3.2],,10.1039/c1cp22820j,Double anions
mp-390,TiO2,True,False,2.0586,-3.508055451944444,[3.2],,10.1039/c1cp22856k,Double anions
mp-390,TiO2,True,False,2.0586,-3.508055451944444,[3.2],,10.1039/c1dt11147g,Double anions
mp-390,TiO2,True,False,2.0586,-3.508055451944444,[2.5],,10.1039/c1fd90023d,Double anions
mp-390,TiO2,True,False,2.0586,-3.508055451944444,[3.0],,10.1039/c1gc15992e,Double anions
mp-390,TiO2,True,False,2.0586,-3.508055451944444,[3.2],,10.1039/c1jm10274e,Double anions
mp-390,TiO2,True,False,2.0586,-3.508055451944444,[3.4],,10.1039/c1jm10366k,Double anions
mp-390,TiO2,True,False,2.0586,-3.508055451944444,[3.0],,10.1039/c1jm10983a,Double anions
mp-390,TiO2,True,False,2.0586,-3.508055451944444,[3.2],,10.1039/c1jm10983a,Double anions
mp-390,TiO2,True,False,2.0586,-3.508055451944444,[3.0],,10.1039/c1jm11431j,Double anions
mp-390,TiO2,True,False,2.0586,-3.508055451944444,[3.0],,10.1039/c1jm11772f,Double anions
mp-390,TiO2,True,False,2.0586,-3.508055451944444,[3.2],,10.1039/c1jm12523k,Double anions
mp-390,TiO2,True,False,2.0586,-3.508055451944444,[0.4],,10.1039/c1jm12863a,Double anions
mp-390,TiO2,True,False,2.0586,-3.508055451944444,[3.2],,10.1039/c1nj20051h,Double anions
mp-390,TiO2,True,False,2.0586,-3.508055451944444,[1.74],,10.1039/c1nr10737b,Double anions
mp-390,TiO2,True,False,2.0586,-3.508055451944444,[3.2],,10.1039/c1nr10737b,Double anions
mp-390,TiO2,True,False,2.0586,-3.508055451944444,[3.0],,10.1039/c1ra00066g,Double anions
mp-390,TiO2,True,False,2.0586,-3.508055451944444,[3.2],,10.1039/c1ra00551k,Double anions
mp-390,TiO2,True,False,2.0586,-3.508055451944444,[3.2],,10.1039/c1ra00621e,Double anions
mp-390,TiO2,True,False,2.0586,-3.508055451944444,[3.2],,10.1039/c1ra00990g,Double anions
mp-390,TiO2,True,False,2.0586,-3.508055451944444,[1.2],,10.1039/c2cc31229h,Double anions
mp-390,TiO2,True,False,2.0586,-3.508055451944444,[3.6],,10.1039/c2cc37616d,Double anions
mp-390,TiO2,True,False,2.0586,-3.508055451944444,[3.2],,10.1039/c2ce06731e,Double anions
mp-390,TiO2,True,False,2.0586,-3.508055451944444,[3.2],,10.1039/c2ce06757a,Double anions
mp-390,TiO2,True,False,2.0586,-3.508055451944444,[3.2],,10.1039/c2ce25827g,Double anions
mp-390,TiO2,True,False,2.0586,-3.508055451944444,[3.01],,10.1039/c2ce25827g,Double anions
mp-390,TiO2,True,False,2.0586,-3.508055451944444,[3.2],,10.1039/c2ce26639c,Double anions
mp-390,TiO2,True,False,2.0586,-3.508055451944444,[3.2],,10.1039/c2cp24010f,Double anions
mp-390,TiO2,True,False,2.0586,-3.508055451944444,[3.2],,10.1039/c2cp40823f,Double anions
mp-390,TiO2,True,False,2.0586,-3.508055451944444,[3.2],,10.1039/c2cp42961f,Double anions
mp-390,TiO2,True,False,2.0586,-3.508055451944444,[3.2],,10.1039/c2cs35019j,Double anions
mp-390,TiO2,True,False,2.0586,-3.508055451944444,[1.1],,10.1039/c2cs35267b,Double anions
mp-390,TiO2,True,False,2.0586,-3.508055451944444,[3.2],,10.1039/c2cs35393h,Double anions
mp-390,TiO2,True,False,2.0586,-3.508055451944444,[3.0],,10.1039/c2cy00411a,Double anions
mp-390,TiO2,True,False,2.0586,-3.508055451944444,[3.2],,10.1039/c2cy00452f,Double anions
mp-390,TiO2,True,False,2.0586,-3.508055451944444,[2.4],,10.1039/c2cy00452f,Double anions
mp-390,TiO2,True,False,2.0586,-3.508055451944444,[3.1],,10.1039/c2dt12018f,Double anions
mp-390,TiO2,True,False,2.0586,-3.508055451944444,[3.2],,10.1039/c2dt12464e,Double anions
mp-390,TiO2,True,False,2.0586,-3.508055451944444,[3.2],,10.1039/c2dt31263h,Double anions
mp-390,TiO2,True,False,2.0586,-3.508055451944444,[3.28],,10.1039/c2dt31263h,Double anions
mp-390,TiO2,True,False,2.0586,-3.508055451944444,[3.85],,10.1039/c2dt31263h,Double anions
mp-390,TiO2,True,False,2.0586,-3.508055451944444,[3.75],,10.1039/c2dt31263h,Double anions
mp-390,TiO2,True,False,2.0586,-3.508055451944444,[3.2],,10.1039/c2dt31376f,Double anions
mp-390,TiO2,True,False,2.0586,-3.508055451944444,[2.1],,10.1039/c2ee02849b,Double anions
mp-390,TiO2,True,False,2.0586,-3.508055451944444,[3.18],,10.1039/c2ee03479d,Double anions
mp-390,TiO2,True,False,2.0586,-3.508055451944444,[2.7],,10.1039/c2ee03479d,Double anions
mp-390,TiO2,True,False,2.0586,-3.508055451944444,[3.05],,10.1039/c2ee21493h,Double anions
mp-390,TiO2,True,False,2.0586,-3.508055451944444,[3.2],,10.1039/c2ee22560c,Double anions
mp-390,TiO2,True,False,2.0586,-3.508055451944444,[3.84],,10.1039/c2jm15150b,Double anions
mp-390,TiO2,True,False,2.0586,-3.508055451944444,[3.2],,10.1039/c2jm15477c,Double anions
mp-390,TiO2,True,False,2.0586,-3.508055451944444,[2.8],,10.1039/c2jm15477c,Double anions
mp-390,TiO2,True,False,2.0586,-3.508055451944444,[1.1],,10.1039/c2jm15477c,Double anions
mp-390,TiO2,True,False,2.0586,-3.508055451944444,[2.2],,10.1039/c2jm30462g,Double anions
mp-390,TiO2,True,False,2.0586,-3.508055451944444,[3.0],,10.1039/c2jm30462g,Double anions
mp-390,TiO2,True,False,2.0586,-3.508055451944444,[3.2],,10.1039/c2jm30540b,Double anions
mp-390,TiO2,True,False,2.0586,-3.508055451944444,[3.2],,10.1039/c2jm33104g,Double anions
mp-390,TiO2,True,False,2.0586,-3.508055451944444,[3.34],,10.1039/c2jm33446a,Double anions
mp-390,TiO2,True,False,2.0586,-3.508055451944444,[3.2],,10.1039/c2jm35128e,Double anions
mp-390,TiO2,True,False,2.0586,-3.508055451944444,[3.2],,10.1039/c2nr30129f,Double anions
mp-390,TiO2,True,False,2.0586,-3.508055451944444,[3.2],,10.1039/c2nr31859h,Double anions
mp-390,TiO2,True,False,2.0586,-3.508055451944444,[3.2],,10.1039/c2ra00003b,Double anions
mp-390,TiO2,True,False,2.0586,-3.508055451944444,[3.2],,10.1039/c2ra01107g,Double anions
mp-390,TiO2,True,False,2.0586,-3.508055451944444,[3.2],,10.1039/c2ra01197b,Double anions
mp-390,TiO2,True,False,2.0586,-3.508055451944444,[3.2],,10.1039/c2ra20613g,Double anions
mp-390,TiO2,True,False,2.0586,-3.508055451944444,[3.2],,10.1039/c2ra20995k,Double anions
mp-390,TiO2,True,False,2.0586,-3.508055451944444,[3.25],,10.1039/c2ra20995k,Double anions
mp-390,TiO2,True,False,2.0586,-3.508055451944444,[2.99],,10.1039/c2ra22438k,Double anions
mp-390,TiO2,True,False,2.0586,-3.508055451944444,[3.0],,10.1039/c2ta00141a,Double anions
mp-390,TiO2,True,False,2.0586,-3.508055451944444,[3.0],,10.1039/c2ta00806h,Double anions
mp-390,TiO2,True,False,2.0586,-3.508055451944444,[3.2],,10.1039/c2tc00072e,Double anions
mp-390,TiO2,True,False,2.0586,-3.508055451944444,[2.6],,10.1039/c3cc38105f,Double anions
mp-390,TiO2,True,False,2.0586,-3.508055451944444,[3.0],,10.1039/c3cc42487a,Double anions
mp-390,TiO2,True,False,2.0586,-3.508055451944444,[3.2],,10.1039/c3ce26909d,Double anions
mp-390,TiO2,True,False,2.0586,-3.508055451944444,[3.2],,10.1039/c3ce40237a,Double anions
mp-390,TiO2,True,False,2.0586,-3.508055451944444,[3.2],,10.1039/c3ce40989a,Double anions
mp-390,TiO2,True,False,2.0586,-3.508055451944444,[3.2],,10.1039/c3ce41390j,Double anions
mp-390,TiO2,True,False,2.0586,-3.508055451944444,[2.2],,10.1039/c3ce41390j,Double anions
mp-390,TiO2,True,False,2.0586,-3.508055451944444,[3.2],,10.1039/c3ce41447g,Double anions
mp-390,TiO2,True,False,2.0586,-3.508055451944444,[3.0],,10.1039/c3ce42184h,Double anions
mp-390,TiO2,True,False,2.0586,-3.508055451944444,[3.2],,10.1039/c3ce42356e,Double anions
mp-390,TiO2,True,False,2.0586,-3.508055451944444,[3.2],,10.1039/c3ce42410c,Double anions
mp-390,TiO2,True,False,2.0586,-3.508055451944444,[3.14],,10.1039/c3cp43572e,Double anions
mp-390,TiO2,True,False,2.0586,-3.508055451944444,[7.0],,10.1039/c3cp44031a,Double anions
mp-390,TiO2,True,False,2.0586,-3.508055451944444,[2.7],,10.1039/c3cp44031a,Double anions
mp-390,TiO2,True,False,2.0586,-3.508055451944444,[3.13],,10.1039/c3cp44031a,Double anions
mp-390,TiO2,True,False,2.0586,-3.508055451944444,[3.2],,10.1039/c3cp44651d,Double anions
mp-390,TiO2,True,False,2.0586,-3.508055451944444,[2.12],,10.1039/c3cp44651d,Double anions
mp-390,TiO2,True,False,2.0586,-3.508055451944444,[3.2],,10.1039/c3cp51142a,Double anions
mp-390,TiO2,True,False,2.0586,-3.508055451944444,[3.2],,10.1039/c3cp51291f,Double anions
mp-390,TiO2,True,False,2.0586,-3.508055451944444,[3.0],,10.1039/c3cp51291f,Double anions
mp-390,TiO2,True,False,2.0586,-3.508055451944444,[3.2],,10.1039/c3cp51502h,Double anions
mp-390,TiO2,True,False,2.0586,-3.508055451944444,[3.03],,10.1039/c3cp51502h,Double anions
mp-390,TiO2,True,False,2.0586,-3.508055451944444,[3.2],,10.1039/c3cp51796a,Double anions
mp-390,TiO2,True,False,2.0586,-3.508055451944444,[3.0],,10.1039/c3cp53131g,Double anions
mp-390,TiO2,True,False,2.0586,-3.508055451944444,[3.2],,10.1039/c3cp53307g,Double anions
mp-390,TiO2,True,False,2.0586,-3.508055451944444,[3.2],,10.1039/c3cp54237h,Double anions
mp-390,TiO2,True,False,2.0586,-3.508055451944444,[3.0],,10.1039/c3cp54629b,Double anions
mp-390,TiO2,True,False,2.0586,-3.508055451944444,[3.2],,10.1039/c3cp54675f,Double anions
mp-390,TiO2,True,False,2.0586,-3.508055451944444,[3.09],,10.1039/c3cp54906b,Double anions
mp-390,TiO2,True,False,2.0586,-3.508055451944444,[1.0],,10.1039/c3cp54988g,Double anions
mp-390,TiO2,True,False,2.0586,-3.508055451944444,[2.8],,10.1039/c3cp55439b,Double anions
mp-390,TiO2,True,False,2.0586,-3.508055451944444,[3.78],,10.1039/c3cs00007a,Double anions
mp-390,TiO2,True,False,2.0586,-3.508055451944444,[3.2],,10.1039/c3cs60437c,Double anions
mp-390,TiO2,True,False,2.0586,-3.508055451944444,[0.7],,10.1039/c3cy00730h,Double anions
mp-390,TiO2,True,False,2.0586,-3.508055451944444,[3.2],,10.1039/c3cy00978e,Double anions
mp-390,TiO2,True,False,2.0586,-3.508055451944444,[3.2],,10.1039/c3cy20764a,Double anions
mp-390,TiO2,True,False,2.0586,-3.508055451944444,[3.2],,10.1039/c3dt52046c,Double anions
mp-390,TiO2,True,False,2.0586,-3.508055451944444,[3.2],,10.1039/c3dt52288a,Double anions
mp-390,TiO2,True,False,2.0586,-3.508055451944444,[1.5],,10.1039/c3dt53503g,Double anions
mp-390,TiO2,True,False,2.0586,-3.508055451944444,[2.43],,10.1039/c3ee23586f,Double anions
mp-390,TiO2,True,False,2.0586,-3.508055451944444,[3.3],,10.1039/c3ee40745d,Double anions
mp-390,TiO2,True,False,2.0586,-3.508055451944444,[3.2],,10.1039/c3ee41817k,Double anions
mp-390,TiO2,True,False,2.0586,-3.508055451944444,[3.2],,10.1039/c3ee41960f,Double anions
mp-390,TiO2,True,False,2.0586,-3.508055451944444,[1.8],,10.1039/c3ee41960f,Double anions
mp-390,TiO2,True,False,2.0586,-3.508055451944444,[1.21],,10.1039/c3ee41960f,Double anions
mp-390,TiO2,True,False,2.0586,-3.508055451944444,[3.2],,10.1039/c3gc42167h,Double anions
mp-390,TiO2,True,False,2.0586,-3.508055451944444,[3.2],,10.1039/c3nj00507k,Double anions
mp-390,TiO2,True,False,2.0586,-3.508055451944444,[3.35],,10.1039/c3nj01386c,Double anions
mp-390,TiO2,True,False,2.0586,-3.508055451944444,[2.9],,10.1039/c3nj41047a,Double anions
mp-390,TiO2,True,False,2.0586,-3.508055451944444,[3.2],,10.1039/c3nr00476g,Double anions
mp-390,TiO2,True,False,2.0586,-3.508055451944444,[1.0],,10.1039/c3nr00476g,Double anions
mp-390,TiO2,True,False,2.0586,-3.508055451944444,[3.3],,10.1039/c3nr00824j,Double anions
mp-390,TiO2,True,False,2.0586,-3.508055451944444,[3.2],,10.1039/c3nr01277h,Double anions
mp-390,TiO2,True,False,2.0586,-3.508055451944444,[3.2],,10.1039/c3nr01577g,Double anions
mp-390,TiO2,True,False,2.0586,-3.508055451944444,[3.0],,10.1039/c3nr02766j,Double anions
mp-390,TiO2,True,False,2.0586,-3.508055451944444,[3.2],,10.1039/c3nr02975a,Double anions
mp-390,TiO2,True,False,2.0586,-3.508055451944444,[3.2],,10.1039/c3nr03352j,Double anions
mp-390,TiO2,True,False,2.0586,-3.508055451944444,[3.0],,10.1039/c3nr03998f,Double anions
mp-390,TiO2,True,False,2.0586,-3.508055451944444,[3.0],,10.1039/c3nr05529a,Double anions
mp-390,TiO2,True,False,2.0586,-3.508055451944444,[3.14],,10.1039/c3nr05652j,Double anions
mp-390,TiO2,True,False,2.0586,-3.508055451944444,[3.03],,10.1039/c3nr06665g,Double anions
mp-390,TiO2,True,False,2.0586,-3.508055451944444,[3.2],,10.1039/c3nr06665g,Double anions
mp-390,TiO2,True,False,2.0586,-3.508055451944444,[2.4],,10.1039/c3nr06665g,Double anions
mp-390,TiO2,True,False,2.0586,-3.508055451944444,[1.91],,10.1039/c3qi00095h,Double anions
mp-390,TiO2,True,False,2.0586,-3.508055451944444,[3.2],,10.1039/c3ra23347b,Double anions
mp-390,TiO2,True,False,2.0586,-3.508055451944444,[3.0],,10.1039/c3ra40239h,Double anions
mp-390,TiO2,True,False,2.0586,-3.508055451944444,[1.0],,10.1039/c3ra40239h,Double anions
mp-390,TiO2,True,False,2.0586,-3.508055451944444,[3.21],,10.1039/c3ra41858h,Double anions
mp-390,TiO2,True,False,2.0586,-3.508055451944444,[3.2],,10.1039/c3ra43082k,Double anions
mp-390,TiO2,True,False,2.0586,-3.508055451944444,[3.27],,10.1039/c3ra43082k,Double anions
mp-390,TiO2,True,False,2.0586,-3.508055451944444,[3.2],,10.1039/c3ra43393e,Double anions
mp-390,TiO2,True,False,2.0586,-3.508055451944444,[3.2],,10.1039/c3ra44898c,Double anions
mp-390,TiO2,True,False,2.0586,-3.508055451944444,[3.2],,10.1039/c3ra46578k,Double anions
mp-390,TiO2,True,False,2.0586,-3.508055451944444,[3.0],,10.1039/c3sc52546e,Double anions
mp-390,TiO2,True,False,2.0586,-3.508055451944444,[3.2],,10.1039/c3ta01298k,Double anions
mp-390,TiO2,True,False,2.0586,-3.508055451944444,[2.9],,10.1039/c3ta01298k,Double anions
mp-390,TiO2,True,False,2.0586,-3.508055451944444,[2.67],,10.1039/c3ta01298k,Double anions
mp-390,TiO2,True,False,2.0586,-3.508055451944444,[3.2],,10.1039/c3ta01386c,Double anions
mp-390,TiO2,True,False,2.0586,-3.508055451944444,[3.2],,10.1039/c3ta10255f,Double anions
mp-390,TiO2,True,False,2.0586,-3.508055451944444,[1.56],,10.1039/c3ta10255f,Double anions
mp-390,TiO2,True,False,2.0586,-3.508055451944444,[3.2],,10.1039/c3ta10270j,Double anions
mp-390,TiO2,True,False,2.0586,-3.508055451944444,[3.2],,10.1039/c3ta11742a,Double anions
mp-390,TiO2,True,False,2.0586,-3.508055451944444,[3.2],,10.1039/c3ta12027a,Double anions
mp-390,TiO2,True,False,2.0586,-3.508055451944444,[3.0],,10.1039/c3ta12329d,Double anions
mp-390,TiO2,True,False,2.0586,-3.508055451944444,[3.2],,10.1039/c3ta13433d,Double anions
mp-390,TiO2,True,False,2.0586,-3.508055451944444,[3.0],,10.1039/c3ta14191h,Double anions
mp-390,TiO2,True,False,2.0586,-3.508055451944444,[3.2],,10.1039/c3ta14298a,Double anions
mp-390,TiO2,True,False,2.0586,-3.508055451944444,[3.2],,10.1039/c3ta14493c,Double anions
mp-390,TiO2,True,False,2.0586,-3.508055451944444,[3.2],,10.1039/c3ta15310j,Double anions
mp-390,TiO2,True,False,2.0586,-3.508055451944444,[3.2],,10.1039/c4ay02473g,Double anions
mp-390,TiO2,True,False,2.0586,-3.508055451944444,[3.16],,10.1039/c4cc07351g,Double anions
mp-390,TiO2,True,False,2.0586,-3.508055451944444,[3.2],,10.1039/c4ce00092g,Double anions
mp-390,TiO2,True,False,2.0586,-3.508055451944444,[3.2],,10.1039/c4ce00122b,Double anions
mp-390,TiO2,True,False,2.0586,-3.508055451944444,[3.2],,10.1039/c4ce01169d,Double anions
mp-390,TiO2,True,False,2.0586,-3.508055451944444,[3.2],,10.1039/c4ce01540a,Double anions
mp-390,TiO2,True,False,2.0586,-3.508055451944444,[3.0],,10.1039/c4ce01864h,Double anions
mp-390,TiO2,True,False,2.0586,-3.508055451944444,[3.2],,10.1039/c4cp00803k,Double anions
mp-390,TiO2,True,False,2.0586,-3.508055451944444,[2.9],,10.1039/c4cp00803k,Double anions
mp-390,TiO2,True,False,2.0586,-3.508055451944444,[3.2],,10.1039/c4cp01497a,Double anions
mp-390,TiO2,True,False,2.0586,-3.508055451944444,[3.2],,10.1039/c4cp02009j,Double anions
mp-390,TiO2,True,False,2.0586,-3.508055451944444,[2.24],,10.1039/c4cp02967d,Double anions
mp-390,TiO2,True,False,2.0586,-3.508055451944444,[3.2],,10.1039/c4cp03132f,Double anions
mp-390,TiO2,True,False,2.0586,-3.508055451944444,[3.0],,10.1039/c4cp03132f,Double anions
mp-390,TiO2,True,False,2.0586,-3.508055451944444,[3.27],,10.1039/c4cp05857g,Double anions
mp-390,TiO2,True,False,2.0586,-3.508055451944444,[3.2],,10.1039/c4cp06045h,Double anions
mp-390,TiO2,True,False,2.0586,-3.508055451944444,[1.5],,10.1039/c4cs00330f,Double anions
mp-390,TiO2,True,False,2.0586,-3.508055451944444,[1.0],,10.1039/c4cs00330f,Double anions
mp-390,TiO2,True,False,2.0586,-3.508055451944444,[0.7],,10.1039/c4cs00330f,Double anions
mp-390,TiO2,True,False,2.0586,-3.508055451944444,[3.0],,10.1039/c4cy00251b,Double anions
mp-390,TiO2,True,False,2.0586,-3.508055451944444,[3.2],,10.1039/c4cy00411f,Double anions
mp-390,TiO2,True,False,2.0586,-3.508055451944444,[3.2],,10.1039/c4cy00886c,Double anions
mp-390,TiO2,True,False,2.0586,-3.508055451944444,[3.2],,10.1039/c4cy01545b,Double anions
mp-390,TiO2,True,False,2.0586,-3.508055451944444,[2.73],,10.1039/c4dt00555d,Double anions
mp-390,TiO2,True,False,2.0586,-3.508055451944444,[3.2],,10.1039/c4dt01926a,Double anions
mp-390,TiO2,True,False,2.0586,-3.508055451944444,[3.73],,10.1039/c4dt01926a,Double anions
mp-390,TiO2,True,False,2.0586,-3.508055451944444,[3.2],,10.1039/c4dt02101k,Double anions
mp-390,TiO2,True,False,2.0586,-3.508055451944444,[3.0],,10.1039/c4dt02101k,Double anions
mp-390,TiO2,True,False,2.0586,-3.508055451944444,[2.3],,10.1039/c4dt02101k,Double anions
mp-390,TiO2,True,False,2.0586,-3.508055451944444,[2.32],,10.1039/c4dt02101k,Double anions
mp-390,TiO2,True,False,2.0586,-3.508055451944444,[3.2],,10.1039/c4dt02127d,Double anions
mp-390,TiO2,True,False,2.0586,-3.508055451944444,[3.2],,10.1039/c4dt02550d,Double anions
mp-390,TiO2,True,False,2.0586,-3.508055451944444,[3.75],,10.1039/c4dt02550d,Double anions
mp-390,TiO2,True,False,2.0586,-3.508055451944444,[0.5],,10.1039/c4dt02550d,Double anions
mp-390,TiO2,True,False,2.0586,-3.508055451944444,[3.0],,10.1039/c4dt03035d,Double anions
mp-390,TiO2,True,False,2.0586,-3.508055451944444,[3.2],,10.1039/c4ee00389f,Double anions
mp-390,TiO2,True,False,2.0586,-3.508055451944444,[3.2],,10.1039/c4ee00612g,Double anions
mp-390,TiO2,True,False,2.0586,-3.508055451944444,[4.9],,10.1039/c4ee01299b,Double anions
mp-390,TiO2,True,False,2.0586,-3.508055451944444,[3.2],,10.1039/c4mh00176a,Double anions
mp-390,TiO2,True,False,2.0586,-3.508055451944444,[2.81],,10.1039/c4mh00176a,Double anions
mp-390,TiO2,True,False,2.0586,-3.508055451944444,[3.25],,10.1039/c4nj01422g,Double anions
mp-390,TiO2,True,False,2.0586,-3.508055451944444,[2.47],,10.1039/c4nj01422g,Double anions
mp-390,TiO2,True,False,2.0586,-3.508055451944444,[3.19],,10.1039/c4nj01515k,Double anions
mp-390,TiO2,True,False,2.0586,-3.508055451944444,[2.06],,10.1039/c4nj01618a,Double anions
mp-390,TiO2,True,False,2.0586,-3.508055451944444,[3.19],,10.1039/c4nr00602j,Double anions
mp-390,TiO2,True,False,2.0586,-3.508055451944444,[3.4],,10.1039/c4pp00252k,Double anions
mp-390,TiO2,True,False,2.0586,-3.508055451944444,[2.95],,10.1039/c4ra01192a,Double anions
mp-390,TiO2,True,False,2.0586,-3.508055451944444,[3.14],,10.1039/c4ra01328j,Double anions
mp-390,TiO2,True,False,2.0586,-3.508055451944444,[2.17],,10.1039/c4ra03088e,Double anions
mp-390,TiO2,True,False,2.0586,-3.508055451944444,[2.2],,10.1039/c4ra03845b,Double anions
mp-390,TiO2,True,False,2.0586,-3.508055451944444,[3.2],,10.1039/c4ra04107k,Double anions
mp-390,TiO2,True,False,2.0586,-3.508055451944444,[3.23],,10.1039/c4ra04228j,Double anions
mp-390,TiO2,True,False,2.0586,-3.508055451944444,[3.2],,10.1039/c4ra04258a,Double anions
mp-390,TiO2,True,False,2.0586,-3.508055451944444,[10.0],,10.1039/c4ra04305g,Double anions
mp-390,TiO2,True,False,2.0586,-3.508055451944444,[3.8],,10.1039/c4ra04305g,Double anions
mp-390,TiO2,True,False,2.0586,-3.508055451944444,[3.23],,10.1039/c4ra04457f,Double anions
mp-390,TiO2,True,False,2.0586,-3.508055451944444,[3.2],,10.1039/c4ra04727c,Double anions
mp-390,TiO2,True,False,2.0586,-3.508055451944444,[3.2],,10.1039/c4ra04829f,Double anions
mp-390,TiO2,True,False,2.0586,-3.508055451944444,[1.9],,10.1039/c4ra05289g,Double anions
mp-390,TiO2,True,False,2.0586,-3.508055451944444,[3.2],,10.1039/c4ra05689b,Double anions
mp-390,TiO2,True,False,2.0586,-3.508055451944444,[3.2],,10.1039/c4ra06059h,Double anions