mpids,formula,is_stable,theoretical,band_gap,formation_energy_per_atom,Value,Temperature_raw_value,DOI,compound_type
mp-1968,La2O3,True,False,3.824799999999999,-3.8759289195,[5.9],,10.1007/s10853-006-1136-y,Double anions
mp-1968,La2O3,True,False,3.824799999999999,-3.8759289195,[5.5],,10.1007/s10854-016-6111-z,Double anions
mp-1968,La2O3,True,False,3.824799999999999,-3.8759289195,[4.3],,10.1186/s40580-019-0181-6,Double anions
mp-1968,La2O3,True,False,3.824799999999999,-3.8759289195,[1.05],,10.1021/jacs.5b03986,Double anions
mp-1968,La2O3,True,False,3.824799999999999,-3.8759289195,[2.86],,10.1021/jacs.5b03986,Double anions
mp-218,Sm2O3,True,False,3.7823,-3.86195246725,[4.33],,10.1007/s10854-016-6224-4,Double anions
mp-218,Sm2O3,True,False,3.7823,-3.86195246725,[4.33],,10.1007/s12043-016-1285-8,Double anions
mp-218,Sm2O3,True,False,3.7823,-3.86195246725,[3.7],,10.1007/s42452-020-2467-z,Double anions
mp-218,Sm2O3,True,False,3.7823,-3.86195246725,[4.0],,10.1007/s10854-013-1173-7,Double anions
mp-218,Sm2O3,True,False,3.7823,-3.86195246725,[1.17],,10.1021/jacs.5b03986,Double anions
mp-218,Sm2O3,True,False,3.7823,-3.86195246725,[2.27],,10.1021/jacs.5b03986,Double anions
mp-4408,Sm2Zr2O7,True,False,3.0741,-3.85569428090909,[2.9],,10.1038/s41598-017-06725-8,Double anions
mp-757233,Gd2Zr2O7,False,True,2.8082000000000003,-3.84645998909091,[0.46],,10.1039/c6ra05113h,Double anions
mp-757233,Gd2Zr2O7,False,True,2.8082000000000003,-3.84645998909091,[2.64],,10.1038/s41598-017-06725-8,Double anions
mp-757233,Gd2Zr2O7,False,True,2.8082000000000003,-3.84645998909091,[2.83],,10.1038/s41598-017-06725-8,Double anions
mp-757233,Gd2Zr2O7,False,True,2.8082000000000003,-3.84645998909091,[2.72],,10.1007/s10853-018-2784-4,Double anions
mp-5977,Nd2Zr2O7,True,False,3.3281,-3.842356440454542,[3.75],,10.1007/s10562-009-0178-6,Double anions
mp-11321,Y3TaO7,True,False,3.5002,-3.826173611575757,[4.6],,10.1039/d0ra01912g,Oxides
mp-1200490,Tb4Al2O9,False,False,4.0883,-3.818433524444445,[4.59],,10.1021/cm801887v,Double anions
mp-2858,ZrO2,True,False,3.5322,-3.813617754999999,[5.0],,10.1016/j.cej.2011.10.085,Double anions
mp-2858,ZrO2,True,False,3.5322,-3.813617754999999,[4.0],,10.1016/j.cej.2011.11.035,Double anions
mp-2858,ZrO2,True,False,3.5322,-3.813617754999999,[5.0],,10.1016/j.cej.2013.05.106,Double anions
mp-2858,ZrO2,True,False,3.5322,-3.813617754999999,[5.8],,10.1016/j.cej.2016.05.038,Double anions
mp-2858,ZrO2,True,False,3.5322,-3.813617754999999,[4.62],,10.1016/j.cej.2019.05.131,Double anions
mp-2858,ZrO2,True,False,3.5322,-3.813617754999999,[4.32],,10.1016/j.jece.2018.10.043,Double anions
mp-2858,ZrO2,True,False,3.5322,-3.813617754999999,[5.0],,10.1016/j.matpr.2015.08.020,Double anions
mp-2858,ZrO2,True,False,3.5322,-3.813617754999999,[2.83],,10.1016/j.matpr.2015.08.020,Double anions
mp-2858,ZrO2,True,False,3.5322,-3.813617754999999,[5.78],,10.1016/j.matpr.2015.08.020,Double anions
mp-2858,ZrO2,True,False,3.5322,-3.813617754999999,[5.0],,10.1016/j.matpr.2018.07.041,Double anions
mp-2858,ZrO2,True,False,3.5322,-3.813617754999999,[5.0],,10.1016/j.matpr.2019.11.177,Double anions
mp-2858,ZrO2,True,False,3.5322,-3.813617754999999,[5.0],,10.1016/j.matpr.2019.11.179,Double anions
mp-2858,ZrO2,True,False,3.5322,-3.813617754999999,[5.0],,10.1016/j.matpr.2019.11.180,Double anions
mp-2858,ZrO2,True,False,3.5322,-3.813617754999999,[4.1],,10.1016/j.matpr.2020.04.769,Double anions
mp-2858,ZrO2,True,False,3.5322,-3.813617754999999,[4.9],,10.1016/j.matpr.2020.04.769,Double anions
mp-2858,ZrO2,True,False,3.5322,-3.813617754999999,[5.0],,10.1016/j.matpr.2020.05.749,Double anions
mp-2858,ZrO2,True,False,3.5322,-3.813617754999999,[5.8],,10.1016/j.optmat.2011.02.043,Double anions
mp-2858,ZrO2,True,False,3.5322,-3.813617754999999,[4.23],,10.1016/j.optmat.2016.07.022,Double anions
mp-2858,ZrO2,True,False,3.5322,-3.813617754999999,[5.18],850,10.1016/j.optmat.2020.109984,Double anions
mp-2858,ZrO2,True,False,3.5322,-3.813617754999999,[5.75],,10.1016/j.optmat.2020.109984,Double anions
mp-2858,ZrO2,True,False,3.5322,-3.813617754999999,[3.65],,10.1016/j.physb.2010.10.057,Double anions
mp-2858,ZrO2,True,False,3.5322,-3.813617754999999,[3.7],,10.1016/j.physb.2012.11.029,Double anions
mp-2858,ZrO2,True,False,3.5322,-3.813617754999999,[0.01],,10.1016/j.physb.2017.01.025,Double anions
mp-2858,ZrO2,True,False,3.5322,-3.813617754999999,[3.736],,10.1016/j.physb.2017.01.025,Double anions
mp-2858,ZrO2,True,False,3.5322,-3.813617754999999,[4.069],,10.1016/j.physb.2017.01.025,Double anions
mp-2858,ZrO2,True,False,3.5322,-3.813617754999999,[3.067],,10.1016/j.physb.2017.01.025,Double anions
mp-2858,ZrO2,True,False,3.5322,-3.813617754999999,[3.59],,10.1016/j.physb.2019.02.001,Double anions
mp-2858,ZrO2,True,False,3.5322,-3.813617754999999,[3.6],,10.1016/j.physb.2019.02.001,Double anions
mp-2858,ZrO2,True,False,3.5322,-3.813617754999999,[5.26],,10.1016/j.tsf.2007.03.142,Double anions
mp-2858,ZrO2,True,False,3.5322,-3.813617754999999,[5.0],,10.1016/j.tsf.2008.09.064,Double anions
mp-2858,ZrO2,True,False,3.5322,-3.813617754999999,[2.0],,10.1016/j.tsf.2008.10.010,Double anions
mp-2858,ZrO2,True,False,3.5322,-3.813617754999999,[5.1],,10.1016/j.tsf.2009.01.099,Double anions
mp-2858,ZrO2,True,False,3.5322,-3.813617754999999,[5.0],,10.1016/j.tsf.2010.04.097,Double anions
mp-2858,ZrO2,True,False,3.5322,-3.813617754999999,[5.96],,10.1016/j.tsf.2012.06.042,Double anions
mp-2858,ZrO2,True,False,3.5322,-3.813617754999999,[5.9],900,10.1016/j.tsf.2012.06.042,Double anions
mp-2858,ZrO2,True,False,3.5322,-3.813617754999999,[5.9],,10.1016/j.tsf.2012.06.042,Double anions
mp-2858,ZrO2,True,False,3.5322,-3.813617754999999,[5.8],,10.1016/j.tsf.2013.01.004,Double anions
mp-2858,ZrO2,True,False,3.5322,-3.813617754999999,[7.8],,10.1016/j.tsf.2013.01.004,Double anions
mp-2858,ZrO2,True,False,3.5322,-3.813617754999999,[5.5],,10.1016/j.tsf.2016.10.044,Double anions
mp-2858,ZrO2,True,False,3.5322,-3.813617754999999,[5.58],,10.1016/j.tsf.2016.10.044,Double anions
mp-2858,ZrO2,True,False,3.5322,-3.813617754999999,[5.8],,10.1016/j.tsf.2018.02.010,Double anions
mp-2858,ZrO2,True,False,3.5322,-3.813617754999999,[5.39],500,10.1016/j.tsf.2018.07.035,Double anions
mp-2858,ZrO2,True,False,3.5322,-3.813617754999999,[5.0],,10.1016/j.jechem.2016.07.006,Double anions
mp-2858,ZrO2,True,False,3.5322,-3.813617754999999,[5.03],,10.1039/b300899a,Double anions
mp-2858,ZrO2,True,False,3.5322,-3.813617754999999,[5.0],,10.1039/b917052a,Double anions
mp-2858,ZrO2,True,False,3.5322,-3.813617754999999,[5.0],,10.1039/b921696k,Double anions
mp-2858,ZrO2,True,False,3.5322,-3.813617754999999,[5.7],,10.1039/c1cp21987a,Double anions
mp-2858,ZrO2,True,False,3.5322,-3.813617754999999,[5.0],,10.1039/c2ra20410j,Double anions
mp-2858,ZrO2,True,False,3.5322,-3.813617754999999,[3.38],,10.1039/c2ra20410j,Double anions
mp-2858,ZrO2,True,False,3.5322,-3.813617754999999,[5.0],,10.1039/c3cp44095h,Double anions
mp-2858,ZrO2,True,False,3.5322,-3.813617754999999,[5.0],550,10.1039/c3cp53216j,Double anions
mp-2858,ZrO2,True,False,3.5322,-3.813617754999999,[3.7],600,10.1039/c3cp53216j,Double anions
mp-2858,ZrO2,True,False,3.5322,-3.813617754999999,[5.0],,10.1039/c3gc40450a,Double anions
mp-2858,ZrO2,True,False,3.5322,-3.813617754999999,[5.8],,10.1039/c4cs00456f,Double anions
mp-2858,ZrO2,True,False,3.5322,-3.813617754999999,[5.0],,10.1039/c5ra11682a,Double anions
mp-2858,ZrO2,True,False,3.5322,-3.813617754999999,[3.01],,10.1039/c5ra23372k,Double anions
mp-2858,ZrO2,True,False,3.5322,-3.813617754999999,[5.0],,10.1039/c6gc03022j,Double anions
mp-2858,ZrO2,True,False,3.5322,-3.813617754999999,[5.02],,10.1039/c6ra26227a,Double anions
mp-2858,ZrO2,True,False,3.5322,-3.813617754999999,[3.25],,10.1039/c7ra08324f,Double anions
mp-2858,ZrO2,True,False,3.5322,-3.813617754999999,[5.0],,10.1039/c7ra12938f,Double anions
mp-2858,ZrO2,True,False,3.5322,-3.813617754999999,[5.4],,10.1039/c8cc04189j,Double anions
mp-2858,ZrO2,True,False,3.5322,-3.813617754999999,[5.0],,10.1039/c8cy01395k,Double anions
mp-2858,ZrO2,True,False,3.5322,-3.813617754999999,[5.0],,10.1039/c8nh00227d,Double anions
mp-2858,ZrO2,True,False,3.5322,-3.813617754999999,[3.37],,10.1039/c8nr07225f,Double anions
mp-2858,ZrO2,True,False,3.5322,-3.813617754999999,[7.51],,10.1039/c9ra06074j,Double anions
mp-2858,ZrO2,True,False,3.5322,-3.813617754999999,[4.08],,10.1039/c9ra06074j,Double anions
mp-2858,ZrO2,True,False,3.5322,-3.813617754999999,[4.51],,10.1039/c9ra06074j,Double anions
mp-2858,ZrO2,True,False,3.5322,-3.813617754999999,[1.16],,10.1039/c9ra06074j,Double anions
mp-2858,ZrO2,True,False,3.5322,-3.813617754999999,[0.1],,10.1039/b204680f,Double anions
mp-2858,ZrO2,True,False,3.5322,-3.813617754999999,[5.0],,10.1039/b817475j,Double anions
mp-2858,ZrO2,True,False,3.5322,-3.813617754999999,[5.79],,10.1039/c0jm01403f,Double anions
mp-2858,ZrO2,True,False,3.5322,-3.813617754999999,[5.0],,10.1039/c2ce06408a,Double anions
mp-2858,ZrO2,True,False,3.5322,-3.813617754999999,[5.0],,10.1039/c2cp42961f,Double anions
mp-2858,ZrO2,True,False,3.5322,-3.813617754999999,[5.0],,10.1039/c2cp43914j,Double anions
mp-2858,ZrO2,True,False,3.5322,-3.813617754999999,[5.0],,10.1039/c2jm15526e,Double anions
mp-2858,ZrO2,True,False,3.5322,-3.813617754999999,[5.0],,10.1039/c3dt51891d,Double anions
mp-2858,ZrO2,True,False,3.5322,-3.813617754999999,[5.0],,10.1039/c3gc41866a,Double anions
mp-2858,ZrO2,True,False,3.5322,-3.813617754999999,[4.0],,10.1039/c4cp04333b,Double anions
mp-2858,ZrO2,True,False,3.5322,-3.813617754999999,[4.6],,10.1039/c4nj01618a,Double anions
mp-2858,ZrO2,True,False,3.5322,-3.813617754999999,[5.02],,10.1039/c4ra06035k,Double anions
mp-2858,ZrO2,True,False,3.5322,-3.813617754999999,[2.5],,10.1039/c4ta05931j,Double anions
mp-2858,ZrO2,True,False,3.5322,-3.813617754999999,[5.0],1400,10.1039/c4ta05931j,Double anions
mp-2858,ZrO2,True,False,3.5322,-3.813617754999999,[5.0],,10.1039/c4ta05931j,Double anions
mp-2858,ZrO2,True,False,3.5322,-3.813617754999999,[1.1],,10.1039/c5ay00446b,Double anions
mp-2858,ZrO2,True,False,3.5322,-3.813617754999999,[5.67],,10.1039/c5cp05592j,Double anions
mp-2858,ZrO2,True,False,3.5322,-3.813617754999999,[3.26],,10.1039/c5cp05592j,Double anions
mp-2858,ZrO2,True,False,3.5322,-3.813617754999999,[3.95],,10.1039/c5dt00421g,Double anions
mp-2858,ZrO2,True,False,3.5322,-3.813617754999999,[5.01],,10.1039/c6cp02047j,Double anions
mp-2858,ZrO2,True,False,3.5322,-3.813617754999999,[1.56],,10.1039/c6cp02047j,Double anions
mp-2858,ZrO2,True,False,3.5322,-3.813617754999999,[2.53],,10.1039/c6cp02047j,Double anions
mp-2858,ZrO2,True,False,3.5322,-3.813617754999999,[6.0],,10.1039/c6cp05977e,Double anions
mp-2858,ZrO2,True,False,3.5322,-3.813617754999999,[3.14],,10.1039/c6cp05977e,Double anions
mp-2858,ZrO2,True,False,3.5322,-3.813617754999999,[0.96],,10.1039/c6cp05977e,Double anions
mp-2858,ZrO2,True,False,3.5322,-3.813617754999999,[3.0],,10.1039/c6ra05273h,Double anions
mp-2858,ZrO2,True,False,3.5322,-3.813617754999999,[2.5],,10.1039/c6ra05273h,Double anions
mp-2858,ZrO2,True,False,3.5322,-3.813617754999999,[2.22],,10.1039/c6ra23098a,Double anions
mp-2858,ZrO2,True,False,3.5322,-3.813617754999999,[3.25],,10.1039/c6ra25823a,Double anions
mp-2858,ZrO2,True,False,3.5322,-3.813617754999999,[5.8],,10.1039/c6ta06827h,Double anions
mp-2858,ZrO2,True,False,3.5322,-3.813617754999999,[5.0],,10.1039/c7cp01101f,Double anions
mp-2858,ZrO2,True,False,3.5322,-3.813617754999999,[5.0],,10.1039/c7dt02013a,Double anions
mp-2858,ZrO2,True,False,3.5322,-3.813617754999999,[5.78],,10.1039/c7nr01904a,Double anions
mp-2858,ZrO2,True,False,3.5322,-3.813617754999999,[4.6],,10.1039/c7nr01904a,Double anions
mp-2858,ZrO2,True,False,3.5322,-3.813617754999999,[2.74],,10.1039/c8nj06507a,Double anions
mp-2858,ZrO2,True,False,3.5322,-3.813617754999999,[4.92],,10.1039/c8ra00259b,Double anions
mp-2858,ZrO2,True,False,3.5322,-3.813617754999999,[5.0],,10.1039/c8ra00259b,Double anions
mp-2858,ZrO2,True,False,3.5322,-3.813617754999999,[4.6],,10.1039/c8ra03423k,Double anions
mp-2858,ZrO2,True,False,3.5322,-3.813617754999999,[5.0],,10.1039/c9ce01170f,Double anions
mp-2858,ZrO2,True,False,3.5322,-3.813617754999999,[4.0],,10.1039/d0cp00032a,Double anions
mp-2858,ZrO2,True,False,3.5322,-3.813617754999999,[0.1],,10.1039/b211661h,Double anions
mp-2858,ZrO2,True,False,3.5322,-3.813617754999999,[5.0],,10.1039/c3cp53562b,Double anions
mp-2858,ZrO2,True,False,3.5322,-3.813617754999999,[5.0],,10.1039/c4dt00662c,Double anions
mp-2858,ZrO2,True,False,3.5322,-3.813617754999999,[3.5],,10.1039/c4ra05115g,Double anions
mp-2858,ZrO2,True,False,3.5322,-3.813617754999999,[5.0],,10.1039/c5ra11126a,Double anions
mp-2858,ZrO2,True,False,3.5322,-3.813617754999999,[5.8],,10.1039/c5ra15642d,Double anions
mp-2858,ZrO2,True,False,3.5322,-3.813617754999999,[4.76],,10.1039/c5ra19290k,Double anions
mp-2858,ZrO2,True,False,3.5322,-3.813617754999999,[5.6],,10.1039/c5ra19290k,Double anions
mp-2858,ZrO2,True,False,3.5322,-3.813617754999999,[3.0],,10.1039/c8ra02958j,Double anions
mp-2858,ZrO2,True,False,3.5322,-3.813617754999999,[5.0],,10.1039/c9ta11839j,Double anions
mp-2858,ZrO2,True,False,3.5322,-3.813617754999999,[1.54],,10.1039/c9ta11839j,Double anions
mp-2858,ZrO2,True,False,3.5322,-3.813617754999999,[4.7],,10.1039/c9ta11839j,Double anions
mp-2858,ZrO2,True,False,3.5322,-3.813617754999999,[4.5],,10.1039/b804321n,Double anions
mp-2858,ZrO2,True,False,3.5322,-3.813617754999999,[5.0],,10.1039/c4gc02420f,Double anions
mp-2858,ZrO2,True,False,3.5322,-3.813617754999999,[5.34],,10.1039/c4tb01959h,Double anions
mp-2858,ZrO2,True,False,3.5322,-3.813617754999999,[4.76],,10.1039/c6ra00870d,Double anions
mp-2858,ZrO2,True,False,3.5322,-3.813617754999999,[3.5],,10.1039/c6ra14199d,Double anions
mp-2858,ZrO2,True,False,3.5322,-3.813617754999999,[5.0],,10.1039/c9ta08683h,Double anions
mp-2858,ZrO2,True,False,3.5322,-3.813617754999999,[5.8],,10.1039/c2cp41553d,Double anions
mp-2858,ZrO2,True,False,3.5322,-3.813617754999999,[5.0],,10.1007/s10562-019-02803-w,Double anions
mp-2858,ZrO2,True,False,3.5322,-3.813617754999999,[5.8],,10.1007/s10854-014-1772-y,Double anions
mp-2858,ZrO2,True,False,3.5322,-3.813617754999999,[5.03],,10.1007/s10854-016-4469-6,Double anions
mp-2858,ZrO2,True,False,3.5322,-3.813617754999999,[2.19],300,10.1007/s10876-016-1017-8,Double anions
mp-2858,ZrO2,True,False,3.5322,-3.813617754999999,[5.79],,10.1007/s10971-015-3881-3,Double anions
mp-2858,ZrO2,True,False,3.5322,-3.813617754999999,[0.026600000000000002],,10.1007/s11082-015-0347-3,Double anions
mp-2858,ZrO2,True,False,3.5322,-3.813617754999999,[0.0339],,10.1007/s11082-015-0347-3,Double anions
mp-2858,ZrO2,True,False,3.5322,-3.813617754999999,[5.0],,10.1007/s11244-018-0957-7,Double anions
mp-2858,ZrO2,True,False,3.5322,-3.813617754999999,[3.4],,10.1007/s11356-016-7685-y,Double anions
mp-2858,ZrO2,True,False,3.5322,-3.813617754999999,[5.78],,10.1007/s12648-020-01764-w,Double anions
mp-2858,ZrO2,True,False,3.5322,-3.813617754999999,[5.87],,10.1007/s12648-020-01764-w,Double anions
mp-2858,ZrO2,True,False,3.5322,-3.813617754999999,[5.0],,10.1007/s10853-008-2566-5,Double anions
mp-2858,ZrO2,True,False,3.5322,-3.813617754999999,[4.97],,10.1007/s10854-017-6923-5,Double anions
mp-2858,ZrO2,True,False,3.5322,-3.813617754999999,[5.1],,10.1007/s10854-018-9497-y,Double anions
mp-2858,ZrO2,True,False,3.5322,-3.813617754999999,[5.8],,10.1007/s10854-018-9497-y,Double anions
mp-2858,ZrO2,True,False,3.5322,-3.813617754999999,[5.0],,10.1007/s10971-007-1608-9,Double anions
mp-2858,ZrO2,True,False,3.5322,-3.813617754999999,[5.02],600,10.1007/s10971-015-3766-5,Double anions
mp-2858,ZrO2,True,False,3.5322,-3.813617754999999,[5.79],,10.1007/s11082-014-9975-2,Double anions
mp-2858,ZrO2,True,False,3.5322,-3.813617754999999,[5.0],,10.1007/s11468-020-01174-y,Double anions
mp-2858,ZrO2,True,False,3.5322,-3.813617754999999,[3.16],,10.1007/s11581-019-03323-8,Double anions
mp-2858,ZrO2,True,False,3.5322,-3.813617754999999,[4.9],,10.1007/s11581-019-03323-8,Double anions
mp-2858,ZrO2,True,False,3.5322,-3.813617754999999,[5.0],,10.1007/s41061-019-0272-1,Double anions
mp-2858,ZrO2,True,False,3.5322,-3.813617754999999,[5.0],,10.1038/s41598-017-14683-4,Double anions
mp-2858,ZrO2,True,False,3.5322,-3.813617754999999,[5.1],,10.1038/s41598-018-23648-0,Double anions
mp-2858,ZrO2,True,False,3.5322,-3.813617754999999,[6.0],,10.1007/s00339-019-3272-7,Double anions
mp-2858,ZrO2,True,False,3.5322,-3.813617754999999,[5.14],,10.1007/s00339-019-3272-7,Double anions
mp-2858,ZrO2,True,False,3.5322,-3.813617754999999,[5.5],,10.1007/s10562-007-9212-8,Double anions
mp-2858,ZrO2,True,False,3.5322,-3.813617754999999,[5.8],,10.1007/s10853-006-0842-9,Double anions
mp-2858,ZrO2,True,False,3.5322,-3.813617754999999,[5.1],,10.1007/s10854-018-0339-8,Double anions
mp-2858,ZrO2,True,False,3.5322,-3.813617754999999,[5.79],,10.1007/s10971-013-3007-8,Double anions
mp-2858,ZrO2,True,False,3.5322,-3.813617754999999,[5.74],,10.1007/s10971-013-3007-8,Double anions
mp-2858,ZrO2,True,False,3.5322,-3.813617754999999,[5.18],,10.1007/s10971-019-05103-2,Double anions
mp-2858,ZrO2,True,False,3.5322,-3.813617754999999,[3.2],,10.1007/s11244-020-01236-9,Double anions
mp-2858,ZrO2,True,False,3.5322,-3.813617754999999,[1.5],,10.1038/s41598-019-57394-8,Double anions
mp-2858,ZrO2,True,False,3.5322,-3.813617754999999,[5.0],,10.1186/1752-153X-5-31,Double anions
mp-2858,ZrO2,True,False,3.5322,-3.813617754999999,[3.4],300,10.1186/s11671-020-03400-2,Double anions
mp-2858,ZrO2,True,False,3.5322,-3.813617754999999,[4.64],,10.1007/s10854-016-4460-2,Double anions
mp-2858,ZrO2,True,False,3.5322,-3.813617754999999,[5.38],,10.1007/s10854-017-7180-3,Double anions
mp-2858,ZrO2,True,False,3.5322,-3.813617754999999,[5.51],,10.1007/s10971-011-2608-3,Double anions
mp-2858,ZrO2,True,False,3.5322,-3.813617754999999,[4.9],,10.1007/s10971-011-2608-3,Double anions
mp-2858,ZrO2,True,False,3.5322,-3.813617754999999,[5.8],,10.1007/s10971-017-4468-y,Double anions
mp-2858,ZrO2,True,False,3.5322,-3.813617754999999,[5.16],,10.1007/s11051-011-0571-0,Double anions
mp-2858,ZrO2,True,False,3.5322,-3.813617754999999,[5.2],,10.1007/s11051-011-0571-0,Double anions
mp-2858,ZrO2,True,False,3.5322,-3.813617754999999,[5.0],,10.1007/s11164-017-2993-5,Double anions
mp-2858,ZrO2,True,False,3.5322,-3.813617754999999,[3.5],,10.1007/s11164-018-3699-z,Double anions
mp-2858,ZrO2,True,False,3.5322,-3.813617754999999,[5.0],,10.1007/s11244-013-0156-5,Double anions
mp-2858,ZrO2,True,False,3.5322,-3.813617754999999,[4.8],,10.1007/s13201-019-1076-8,Double anions
mp-2858,ZrO2,True,False,3.5322,-3.813617754999999,[5.2],,10.1007/s13201-019-1076-8,Double anions
mp-2858,ZrO2,True,False,3.5322,-3.813617754999999,[3.6],,10.1007/s40201-020-00563-z,Double anions
mp-2858,ZrO2,True,False,3.5322,-3.813617754999999,[5.8],,10.1038/srep33576,Double anions
mp-2858,ZrO2,True,False,3.5322,-3.813617754999999,[4.0],,10.1186/s11671-015-0780-z,Double anions
mp-2858,ZrO2,True,False,3.5322,-3.813617754999999,[5.0],550,10.1186/s11671-015-0780-z,Double anions
mp-2858,ZrO2,True,False,3.5322,-3.813617754999999,[3.7],,10.1186/s11671-015-0780-z,Double anions
mp-2858,ZrO2,True,False,3.5322,-3.813617754999999,[5.0],,10.1007/s00706-009-0176-9,Double anions
mp-2858,ZrO2,True,False,3.5322,-3.813617754999999,[5.68],,10.1007/s10562-019-02729-3,Double anions
mp-2858,ZrO2,True,False,3.5322,-3.813617754999999,[3.25],,10.1007/s10562-019-02729-3,Double anions
mp-2858,ZrO2,True,False,3.5322,-3.813617754999999,[5.01],,10.1007/s10562-019-02729-3,Double anions
mp-2858,ZrO2,True,False,3.5322,-3.813617754999999,[5.5],,10.1007/s10854-013-1408-7,Double anions
mp-2858,ZrO2,True,False,3.5322,-3.813617754999999,[4.92],,10.1007/s10854-016-6264-9,Double anions
mp-2858,ZrO2,True,False,3.5322,-3.813617754999999,[4.14],,10.1007/s10854-016-6264-9,Double anions
mp-2858,ZrO2,True,False,3.5322,-3.813617754999999,[4.9],,10.1007/s10854-018-9537-7,Double anions
mp-2858,ZrO2,True,False,3.5322,-3.813617754999999,[5.79],,10.1007/s10971-011-2443-6,Double anions