mpids,formula,is_stable,theoretical,band_gap,formation_energy_per_atom,Value,Temperature_raw_value,DOI,compound_type
mp-4651,SrTiO3,True,True,1.848799999999999,-3.551662291666667,[3.2],,10.1016/j.jece.2016.04.019,Chalcogenides
mp-4651,SrTiO3,True,True,1.848799999999999,-3.551662291666667,[3.2],,10.1016/j.jece.2018.09.016,Chalcogenides
mp-4651,SrTiO3,True,True,1.848799999999999,-3.551662291666667,[3.2],,10.1016/j.jece.2020.103791,Chalcogenides
mp-4651,SrTiO3,True,True,1.848799999999999,-3.551662291666667,[3.35],,10.1016/j.jece.2020.103791,Chalcogenides
mp-4651,SrTiO3,True,True,1.848799999999999,-3.551662291666667,[2.11],,10.1016/j.jece.2020.103791,Chalcogenides
mp-4651,SrTiO3,True,True,1.848799999999999,-3.551662291666667,[1.83],,10.1016/j.jece.2020.103791,Chalcogenides
mp-4651,SrTiO3,True,True,1.848799999999999,-3.551662291666667,[2.21],,10.1016/j.jece.2020.103791,Chalcogenides
mp-4651,SrTiO3,True,True,1.848799999999999,-3.551662291666667,[3.2],,10.1016/j.optmat.2019.04.030,Chalcogenides
mp-4651,SrTiO3,True,True,1.848799999999999,-3.551662291666667,[3.2],,10.1016/j.physb.2007.01.008,Chalcogenides
mp-4651,SrTiO3,True,True,1.848799999999999,-3.551662291666667,[3.2],,10.1016/j.physb.2008.01.003,Chalcogenides
mp-4651,SrTiO3,True,True,1.848799999999999,-3.551662291666667,[2.25],,10.1016/j.physb.2011.01.042,Chalcogenides
mp-4651,SrTiO3,True,True,1.848799999999999,-3.551662291666667,[2.02],,10.1016/j.physb.2011.01.042,Chalcogenides
mp-4651,SrTiO3,True,True,1.848799999999999,-3.551662291666667,[1.78],,10.1016/j.physb.2011.01.042,Chalcogenides
mp-4651,SrTiO3,True,True,1.848799999999999,-3.551662291666667,[3.2],,10.1016/j.physb.2011.12.020,Chalcogenides
mp-4651,SrTiO3,True,True,1.848799999999999,-3.551662291666667,[2.778],,10.1016/j.physb.2012.05.025,Chalcogenides
mp-4651,SrTiO3,True,True,1.848799999999999,-3.551662291666667,[3.2],,10.1016/j.physb.2012.08.038,Chalcogenides
mp-4651,SrTiO3,True,True,1.848799999999999,-3.551662291666667,[2.2],,10.1016/j.physb.2012.08.038,Chalcogenides
mp-4651,SrTiO3,True,True,1.848799999999999,-3.551662291666667,[1.44],,10.1016/j.physb.2012.08.038,Chalcogenides
mp-4651,SrTiO3,True,True,1.848799999999999,-3.551662291666667,[1.812],,10.1016/j.physb.2018.09.022,Chalcogenides
mp-4651,SrTiO3,True,True,1.848799999999999,-3.551662291666667,[1.8],,10.1016/j.physb.2018.09.022,Chalcogenides
mp-4651,SrTiO3,True,True,1.848799999999999,-3.551662291666667,[3.2],,10.1016/j.physb.2019.07.015,Chalcogenides
mp-4651,SrTiO3,True,True,1.848799999999999,-3.551662291666667,[3.2],,10.1016/j.tsf.2004.11.222,Chalcogenides
mp-4651,SrTiO3,True,True,1.848799999999999,-3.551662291666667,[1.2],,10.1016/j.tsf.2005.11.083,Chalcogenides
mp-4651,SrTiO3,True,True,1.848799999999999,-3.551662291666667,[0.12],,10.1016/j.tsf.2008.02.046,Chalcogenides
mp-4651,SrTiO3,True,True,1.848799999999999,-3.551662291666667,[1.5],,10.1016/j.tsf.2011.03.137,Chalcogenides
mp-4651,SrTiO3,True,True,1.848799999999999,-3.551662291666667,[3.2],,10.1016/j.tsf.2011.06.087,Chalcogenides
mp-4651,SrTiO3,True,True,1.848799999999999,-3.551662291666667,[3.25],,10.1016/j.tsf.2013.10.043,Chalcogenides
mp-4651,SrTiO3,True,True,1.848799999999999,-3.551662291666667,[3.3],,10.1016/j.ceramint.2018.09.305,Chalcogenides
mp-4651,SrTiO3,True,True,1.848799999999999,-3.551662291666667,[3.2],,10.1016/j.ceramint.2018.09.305,Chalcogenides
mp-4651,SrTiO3,True,True,1.848799999999999,-3.551662291666667,[3.27],,10.1016/j.ijhydene.2014.06.059,Chalcogenides
mp-4651,SrTiO3,True,True,1.848799999999999,-3.551662291666667,[2.07],,10.1016/j.ijhydene.2014.06.059,Chalcogenides
mp-4651,SrTiO3,True,True,1.848799999999999,-3.551662291666667,[3.25],,10.1016/j.ijhydene.2014.06.059,Chalcogenides
mp-4651,SrTiO3,True,True,1.848799999999999,-3.551662291666667,[3.2],,10.1016/j.ijhydene.2014.09.141,Chalcogenides
mp-4651,SrTiO3,True,True,1.848799999999999,-3.551662291666667,[2.16],,10.1016/j.ijhydene.2014.09.141,Chalcogenides
mp-4651,SrTiO3,True,True,1.848799999999999,-3.551662291666667,[3.2],,10.1016/j.seppur.2019.115771,Chalcogenides
mp-4651,SrTiO3,True,True,1.848799999999999,-3.551662291666667,[1.86],,10.1039/b922399a,Chalcogenides
mp-4651,SrTiO3,True,True,1.848799999999999,-3.551662291666667,[3.2],,10.1039/c1jm11385b,Chalcogenides
mp-4651,SrTiO3,True,True,1.848799999999999,-3.551662291666667,[3.2],,10.1039/c3nr05564g,Chalcogenides
mp-4651,SrTiO3,True,True,1.848799999999999,-3.551662291666667,[3.7],,10.1039/c4cy00974f,Chalcogenides
mp-4651,SrTiO3,True,True,1.848799999999999,-3.551662291666667,[3.3],,10.1039/c4cy00974f,Chalcogenides
mp-4651,SrTiO3,True,True,1.848799999999999,-3.551662291666667,[3.2],,10.1039/c4ra11985a,Chalcogenides
mp-4651,SrTiO3,True,True,1.848799999999999,-3.551662291666667,[3.22],,10.1039/c4ta01988a,Chalcogenides
mp-4651,SrTiO3,True,True,1.848799999999999,-3.551662291666667,[3.2],,10.1039/c5ce01263e,Chalcogenides
mp-4651,SrTiO3,True,True,1.848799999999999,-3.551662291666667,[3.19],,10.1039/c5cp01374g,Chalcogenides
mp-4651,SrTiO3,True,True,1.848799999999999,-3.551662291666667,[2.62],,10.1039/c5cp01374g,Chalcogenides
mp-4651,SrTiO3,True,True,1.848799999999999,-3.551662291666667,[2.65],,10.1039/c5cp01374g,Chalcogenides
mp-4651,SrTiO3,True,True,1.848799999999999,-3.551662291666667,[3.4],,10.1039/c5cp03005f,Chalcogenides
mp-4651,SrTiO3,True,True,1.848799999999999,-3.551662291666667,[3.2],,10.1039/c5cp03889h,Chalcogenides
mp-4651,SrTiO3,True,True,1.848799999999999,-3.551662291666667,[0.45],,10.1039/c5cp03889h,Chalcogenides
mp-4651,SrTiO3,True,True,1.848799999999999,-3.551662291666667,[3.2],,10.1039/c5gc02745d,Chalcogenides
mp-4651,SrTiO3,True,True,1.848799999999999,-3.551662291666667,[3.19],,10.1039/c5nr08689b,Chalcogenides
mp-4651,SrTiO3,True,True,1.848799999999999,-3.551662291666667,[3.2],,10.1039/c5ra03086b,Chalcogenides
mp-4651,SrTiO3,True,True,1.848799999999999,-3.551662291666667,[3.2],,10.1039/c6ra03472a,Chalcogenides
mp-4651,SrTiO3,True,True,1.848799999999999,-3.551662291666667,[3.18],,10.1039/c6ra03472a,Chalcogenides
mp-4651,SrTiO3,True,True,1.848799999999999,-3.551662291666667,[3.1],,10.1039/c7cc08797g,Chalcogenides
mp-4651,SrTiO3,True,True,1.848799999999999,-3.551662291666667,[3.05],,10.1039/c7cc08797g,Chalcogenides
mp-4651,SrTiO3,True,True,1.848799999999999,-3.551662291666667,[3.25],,10.1039/c7ce00834a,Chalcogenides
mp-4651,SrTiO3,True,True,1.848799999999999,-3.551662291666667,[1.8],,10.1039/c7cp01462g,Chalcogenides
mp-4651,SrTiO3,True,True,1.848799999999999,-3.551662291666667,[2.28],,10.1039/c7cp01462g,Chalcogenides
mp-4651,SrTiO3,True,True,1.848799999999999,-3.551662291666667,[3.2],,10.1039/c7nr09023d,Chalcogenides
mp-4651,SrTiO3,True,True,1.848799999999999,-3.551662291666667,[3.2],,10.1039/c7qi00769h,Chalcogenides
mp-4651,SrTiO3,True,True,1.848799999999999,-3.551662291666667,[3.25],,10.1039/c7qi00769h,Chalcogenides
mp-4651,SrTiO3,True,True,1.848799999999999,-3.551662291666667,[3.2],,10.1039/c7qm00155j,Chalcogenides
mp-4651,SrTiO3,True,True,1.848799999999999,-3.551662291666667,[3.2],,10.1039/c7ra12393k,Chalcogenides
mp-4651,SrTiO3,True,True,1.848799999999999,-3.551662291666667,[3.15],,10.1039/c7ra12393k,Chalcogenides
mp-4651,SrTiO3,True,True,1.848799999999999,-3.551662291666667,[3.2],,10.1039/c7ra13523h,Chalcogenides
mp-4651,SrTiO3,True,True,1.848799999999999,-3.551662291666667,[2.6],,10.1039/c7ra13523h,Chalcogenides
mp-4651,SrTiO3,True,True,1.848799999999999,-3.551662291666667,[3.19],,10.1039/c8cp00844b,Chalcogenides
mp-4651,SrTiO3,True,True,1.848799999999999,-3.551662291666667,[3.2],500,10.1039/c8cp02806k,Chalcogenides
mp-4651,SrTiO3,True,True,1.848799999999999,-3.551662291666667,[2.3],,10.1039/c8fd00209f,Chalcogenides
mp-4651,SrTiO3,True,True,1.848799999999999,-3.551662291666667,[3.2],,10.1039/c8ta05177a,Chalcogenides
mp-4651,SrTiO3,True,True,1.848799999999999,-3.551662291666667,[3.2],300,10.1039/c8ta09022j,Chalcogenides
mp-4651,SrTiO3,True,True,1.848799999999999,-3.551662291666667,[1.4],,10.1039/c8ta09022j,Chalcogenides
mp-4651,SrTiO3,True,True,1.848799999999999,-3.551662291666667,[2.29],,10.1039/c9cs00102f,Chalcogenides
mp-4651,SrTiO3,True,True,1.848799999999999,-3.551662291666667,[3.2],,10.1039/c9ee00310j,Chalcogenides
mp-4651,SrTiO3,True,True,1.848799999999999,-3.551662291666667,[3.6],,10.1039/c9ee00310j,Chalcogenides
mp-4651,SrTiO3,True,True,1.848799999999999,-3.551662291666667,[3.0],,10.1039/c9ee00310j,Chalcogenides
mp-4651,SrTiO3,True,True,1.848799999999999,-3.551662291666667,[3.2],,10.1039/c9en01483g,Chalcogenides
mp-4651,SrTiO3,True,True,1.848799999999999,-3.551662291666667,[3.2],,10.1039/d0ma00463d,Chalcogenides
mp-4651,SrTiO3,True,True,1.848799999999999,-3.551662291666667,[1.75],,10.1039/d0ma00463d,Chalcogenides
mp-4651,SrTiO3,True,True,1.848799999999999,-3.551662291666667,[3.1],,10.1039/d0nr00219d,Chalcogenides
mp-4651,SrTiO3,True,True,1.848799999999999,-3.551662291666667,[3.25],,10.1039/d0ra07026b,Chalcogenides
mp-4651,SrTiO3,True,True,1.848799999999999,-3.551662291666667,[2.0],,10.1039/d0ra07026b,Chalcogenides
mp-4651,SrTiO3,True,True,1.848799999999999,-3.551662291666667,[3.48],,10.1039/d0ra07026b,Chalcogenides
mp-4651,SrTiO3,True,True,1.848799999999999,-3.551662291666667,[3.22],,10.1039/d0ra07026b,Chalcogenides
mp-4651,SrTiO3,True,True,1.848799999999999,-3.551662291666667,[2.7],700,10.1039/b204032h,Chalcogenides
mp-4651,SrTiO3,True,True,1.848799999999999,-3.551662291666667,[3.2],,10.1039/b305139k,Chalcogenides
mp-4651,SrTiO3,True,True,1.848799999999999,-3.551662291666667,[3.2],,10.1039/b803996h,Chalcogenides
mp-4651,SrTiO3,True,True,1.848799999999999,-3.551662291666667,[3.4],,10.1039/c1fd00077b,Chalcogenides
mp-4651,SrTiO3,True,True,1.848799999999999,-3.551662291666667,[3.17],,10.1039/c2ce25751c,Chalcogenides
mp-4651,SrTiO3,True,True,1.848799999999999,-3.551662291666667,[3.6],,10.1039/c2jm15150b,Chalcogenides
mp-4651,SrTiO3,True,True,1.848799999999999,-3.551662291666667,[3.2],,10.1039/c2nj40988g,Chalcogenides
mp-4651,SrTiO3,True,True,1.848799999999999,-3.551662291666667,[3.4],,10.1039/c2nj40988g,Chalcogenides
mp-4651,SrTiO3,True,True,1.848799999999999,-3.551662291666667,[3.2],,10.1039/c3ta14475e,Chalcogenides
mp-4651,SrTiO3,True,True,1.848799999999999,-3.551662291666667,[3.2],,10.1039/c4cp02856b,Chalcogenides
mp-4651,SrTiO3,True,True,1.848799999999999,-3.551662291666667,[2.4],,10.1039/c4cp02856b,Chalcogenides
mp-4651,SrTiO3,True,True,1.848799999999999,-3.551662291666667,[2.82],,10.1039/c4cp02856b,Chalcogenides
mp-4651,SrTiO3,True,True,1.848799999999999,-3.551662291666667,[1.91],,10.1039/c4cp02963a,Chalcogenides
mp-4651,SrTiO3,True,True,1.848799999999999,-3.551662291666667,[3.2],,10.1039/c4cp02963a,Chalcogenides
mp-4651,SrTiO3,True,True,1.848799999999999,-3.551662291666667,[3.51],,10.1039/c4ra06828a,Chalcogenides
mp-4651,SrTiO3,True,True,1.848799999999999,-3.551662291666667,[3.19],,10.1039/c4ra07289h,Chalcogenides
mp-4651,SrTiO3,True,True,1.848799999999999,-3.551662291666667,[3.2],,10.1039/c4ra07289h,Chalcogenides
mp-4651,SrTiO3,True,True,1.848799999999999,-3.551662291666667,[3.2],,10.1039/c4ra11960f,Chalcogenides
mp-4651,SrTiO3,True,True,1.848799999999999,-3.551662291666667,[3.2],,10.1039/c4ta04984e,Chalcogenides
mp-4651,SrTiO3,True,True,1.848799999999999,-3.551662291666667,[3.2],,10.1039/c4ta05485g,Chalcogenides
mp-4651,SrTiO3,True,True,1.848799999999999,-3.551662291666667,[3.28],,10.1039/c4tc00031e,Chalcogenides
mp-4651,SrTiO3,True,True,1.848799999999999,-3.551662291666667,[3.2],,10.1039/c5cs00769k,Chalcogenides
mp-4651,SrTiO3,True,True,1.848799999999999,-3.551662291666667,[2.4],,10.1039/c5qi00124b,Chalcogenides
mp-4651,SrTiO3,True,True,1.848799999999999,-3.551662291666667,[3.2],,10.1039/c5ra21651f,Chalcogenides
mp-4651,SrTiO3,True,True,1.848799999999999,-3.551662291666667,[3.15],,10.1039/c6cp04604e,Chalcogenides
mp-4651,SrTiO3,True,True,1.848799999999999,-3.551662291666667,[3.2],,10.1039/c6ra27840j,Chalcogenides
mp-4651,SrTiO3,True,True,1.848799999999999,-3.551662291666667,[3.0],,10.1039/c7cc07969a,Chalcogenides
mp-4651,SrTiO3,True,True,1.848799999999999,-3.551662291666667,[3.2],,10.1039/c7dt03444j,Chalcogenides
mp-4651,SrTiO3,True,True,1.848799999999999,-3.551662291666667,[4.15],,10.1039/c7nj00204a,Chalcogenides
mp-4651,SrTiO3,True,True,1.848799999999999,-3.551662291666667,[3.7],,10.1039/c7nj00204a,Chalcogenides
mp-4651,SrTiO3,True,True,1.848799999999999,-3.551662291666667,[3.2],,10.1039/c7se00219j,Chalcogenides
mp-4651,SrTiO3,True,True,1.848799999999999,-3.551662291666667,[2.45],,10.1039/c7se00219j,Chalcogenides
mp-4651,SrTiO3,True,True,1.848799999999999,-3.551662291666667,[3.2],,10.1039/c7ta10934b,Chalcogenides
mp-4651,SrTiO3,True,True,1.848799999999999,-3.551662291666667,[2.7],,10.1039/c7ta10934b,Chalcogenides
mp-4651,SrTiO3,True,True,1.848799999999999,-3.551662291666667,[3.2],,10.1039/c9ce01170f,Chalcogenides
mp-4651,SrTiO3,True,True,1.848799999999999,-3.551662291666667,[3.25],,10.1039/c9cs00254e,Chalcogenides
mp-4651,SrTiO3,True,True,1.848799999999999,-3.551662291666667,[3.2],,10.1039/c9cy00663j,Chalcogenides
mp-4651,SrTiO3,True,True,1.848799999999999,-3.551662291666667,[3.3],,10.1039/c9cy01818b,Chalcogenides
mp-4651,SrTiO3,True,True,1.848799999999999,-3.551662291666667,[3.2],,10.1039/c9ee00717b,Chalcogenides
mp-4651,SrTiO3,True,True,1.848799999999999,-3.551662291666667,[3.25],,10.1039/c9ra01573f,Chalcogenides
mp-4651,SrTiO3,True,True,1.848799999999999,-3.551662291666667,[3.2],,10.1039/d0cy00600a,Chalcogenides
mp-4651,SrTiO3,True,True,1.848799999999999,-3.551662291666667,[1.0],,10.1039/d0ta02136a,Chalcogenides
mp-4651,SrTiO3,True,True,1.848799999999999,-3.551662291666667,[3.0],,10.1039/c2cp40939a,Chalcogenides
mp-4651,SrTiO3,True,True,1.848799999999999,-3.551662291666667,[3.14],,10.1039/c2ra00823h,Chalcogenides
mp-4651,SrTiO3,True,True,1.848799999999999,-3.551662291666667,[3.2],,10.1039/c3ta13947f,Chalcogenides
mp-4651,SrTiO3,True,True,1.848799999999999,-3.551662291666667,[0.09],,10.1039/c4ce02301c,Chalcogenides
mp-4651,SrTiO3,True,True,1.848799999999999,-3.551662291666667,[3.2],,10.1039/c4dt01076k,Chalcogenides
mp-4651,SrTiO3,True,True,1.848799999999999,-3.551662291666667,[3.2],,10.1039/c5nr04819b,Chalcogenides
mp-4651,SrTiO3,True,True,1.848799999999999,-3.551662291666667,[3.2],,10.1039/c5ta06950e,Chalcogenides
mp-4651,SrTiO3,True,True,1.848799999999999,-3.551662291666667,[3.2],,10.1039/c5ta09174h,Chalcogenides
mp-4651,SrTiO3,True,True,1.848799999999999,-3.551662291666667,[2.87],,10.1039/c6tc05627j,Chalcogenides
mp-4651,SrTiO3,True,True,1.848799999999999,-3.551662291666667,[3.2],,10.1039/c8cc00453f,Chalcogenides
mp-4651,SrTiO3,True,True,1.848799999999999,-3.551662291666667,[3.2],,10.1039/c8ta05885g,Chalcogenides
mp-4651,SrTiO3,True,True,1.848799999999999,-3.551662291666667,[3.22],,10.1039/c9tc01753d,Chalcogenides
mp-4651,SrTiO3,True,True,1.848799999999999,-3.551662291666667,[3.2],,10.1039/c2cc33797e,Chalcogenides
mp-4651,SrTiO3,True,True,1.848799999999999,-3.551662291666667,[3.2],,10.1039/c3cy00014a,Chalcogenides
mp-4651,SrTiO3,True,True,1.848799999999999,-3.551662291666667,[3.3],,10.1039/c4cp04151h,Chalcogenides
mp-4651,SrTiO3,True,True,1.848799999999999,-3.551662291666667,[2.2],,10.1039/c5ee01701g,Chalcogenides
mp-4651,SrTiO3,True,True,1.848799999999999,-3.551662291666667,[3.2],,10.1039/c6cc00717a,Chalcogenides
mp-4651,SrTiO3,True,True,1.848799999999999,-3.551662291666667,[3.25],,10.1039/c6cp08608j,Chalcogenides
mp-4651,SrTiO3,True,True,1.848799999999999,-3.551662291666667,[3.2],,10.1039/c7ra07741f,Chalcogenides
mp-4651,SrTiO3,True,True,1.848799999999999,-3.551662291666667,[3.2],,10.1039/c7sc03920d,Chalcogenides
mp-4651,SrTiO3,True,True,1.848799999999999,-3.551662291666667,[3.25],,10.1039/c9dt01360a,Chalcogenides
mp-4651,SrTiO3,True,True,1.848799999999999,-3.551662291666667,[3.2],,10.1039/d0nj00771d,Chalcogenides
mp-4651,SrTiO3,True,True,1.848799999999999,-3.551662291666667,[3.2],,10.1039/c3ce40571k,Chalcogenides
mp-4651,SrTiO3,True,True,1.848799999999999,-3.551662291666667,[3.3],,10.1039/c6cp06049h,Chalcogenides
mp-4651,SrTiO3,True,True,1.848799999999999,-3.551662291666667,[3.2],,10.1039/c9cc05228c,Chalcogenides
mp-4651,SrTiO3,True,True,1.848799999999999,-3.551662291666667,[3.29],,10.1007/s00339-019-2668-8,Chalcogenides
mp-4651,SrTiO3,True,True,1.848799999999999,-3.551662291666667,[3.2],,10.1007/s10853-017-1977-6,Chalcogenides
mp-4651,SrTiO3,True,True,1.848799999999999,-3.551662291666667,[2.2],,10.1007/s10853-017-1977-6,Chalcogenides
mp-4651,SrTiO3,True,True,1.848799999999999,-3.551662291666667,[3.21],,10.1007/s10854-018-8527-0,Chalcogenides
mp-4651,SrTiO3,True,True,1.848799999999999,-3.551662291666667,[3.4],,10.1007/s11164-016-2535-6,Chalcogenides
mp-4651,SrTiO3,True,True,1.848799999999999,-3.551662291666667,[3.2],0,10.1007/s11581-015-1389-z,Chalcogenides
mp-4651,SrTiO3,True,True,1.848799999999999,-3.551662291666667,[2.17],,10.1038/s41598-020-72195-0,Chalcogenides
mp-4651,SrTiO3,True,True,1.848799999999999,-3.551662291666667,[2.57],,10.1038/s41598-020-72195-0,Chalcogenides
mp-4651,SrTiO3,True,True,1.848799999999999,-3.551662291666667,[3.28],,10.1038/s41598-020-72195-0,Chalcogenides
mp-4651,SrTiO3,True,True,1.848799999999999,-3.551662291666667,[4.14],,10.1134/S0030400X18100247,Chalcogenides
mp-4651,SrTiO3,True,True,1.848799999999999,-3.551662291666667,[3.2],,10.1007/s10008-013-2139-7,Chalcogenides
mp-4651,SrTiO3,True,True,1.848799999999999,-3.551662291666667,[3.2],,10.1007/s10853-020-04531-8,Chalcogenides
mp-4651,SrTiO3,True,True,1.848799999999999,-3.551662291666667,[3.2],,10.1007/s10971-019-05074-4,Chalcogenides
mp-4651,SrTiO3,True,True,1.848799999999999,-3.551662291666667,[3.2],,10.1007/s11144-020-01872-y,Chalcogenides
mp-4651,SrTiO3,True,True,1.848799999999999,-3.551662291666667,[2.6],,10.1038/srep13762,Chalcogenides
mp-4651,SrTiO3,True,True,1.848799999999999,-3.551662291666667,[3.15],,10.1038/srep31239,Chalcogenides
mp-4651,SrTiO3,True,True,1.848799999999999,-3.551662291666667,[3.25],,10.1007/s00339-020-03739-4,Chalcogenides
mp-4651,SrTiO3,True,True,1.848799999999999,-3.551662291666667,[3.2],,10.1007/s10008-015-2995-4,Chalcogenides
mp-4651,SrTiO3,True,True,1.848799999999999,-3.551662291666667,[3.2],,10.1007/s10853-016-9779-9,Chalcogenides
mp-4651,SrTiO3,True,True,1.848799999999999,-3.551662291666667,[3.2],,10.1007/s10854-014-2132-7,Chalcogenides
mp-4651,SrTiO3,True,True,1.848799999999999,-3.551662291666667,[3.2],,10.1007/s10854-018-9804-7,Chalcogenides
mp-4651,SrTiO3,True,True,1.848799999999999,-3.551662291666667,[3.14],,10.1007/s10854-018-9804-7,Chalcogenides
mp-4651,SrTiO3,True,True,1.848799999999999,-3.551662291666667,[3.2],,10.1007/s10854-019-01756-5,Chalcogenides
mp-4651,SrTiO3,True,True,1.848799999999999,-3.551662291666667,[3.06],,10.1007/s11051-020-04994-5,Chalcogenides
mp-4651,SrTiO3,True,True,1.848799999999999,-3.551662291666667,[3.0],,10.1007/s11051-020-04994-5,Chalcogenides
mp-4651,SrTiO3,True,True,1.848799999999999,-3.551662291666667,[3.75],,10.1007/s11051-020-04994-5,Chalcogenides
mp-4651,SrTiO3,True,True,1.848799999999999,-3.551662291666667,[3.2],,10.1038/s41929-019-0242-6,Chalcogenides
mp-4651,SrTiO3,True,True,1.848799999999999,-3.551662291666667,[1.75],,10.1007/s12648-016-0848-3,Chalcogenides
mp-4651,SrTiO3,True,True,1.848799999999999,-3.551662291666667,[1.9],,10.1007/s12648-016-0848-3,Chalcogenides
mp-4651,SrTiO3,True,True,1.848799999999999,-3.551662291666667,[1.67],,10.1007/s12648-016-0848-3,Chalcogenides
mp-4651,SrTiO3,True,True,1.848799999999999,-3.551662291666667,[1.85],,10.1007/s12648-016-0848-3,Chalcogenides
mp-4651,SrTiO3,True,True,1.848799999999999,-3.551662291666667,[3.0],,10.1007/s40243-020-0166-8,Chalcogenides
mp-4651,SrTiO3,True,True,1.848799999999999,-3.551662291666667,[3.2],,10.1038/s41467-020-16207-7,Chalcogenides
mp-4651,SrTiO3,True,True,1.848799999999999,-3.551662291666667,[2.58],,10.1007/s00396-017-4085-x,Chalcogenides
mp-4651,SrTiO3,True,True,1.848799999999999,-3.551662291666667,[3.2],,10.1007/s10098-019-01766-1,Chalcogenides
mp-4651,SrTiO3,True,True,1.848799999999999,-3.551662291666667,[3.2],,10.1007/s10570-020-03246-y,Chalcogenides