mpids,formula,is_stable,theoretical,band_gap,formation_energy_per_atom,Value,Temperature_raw_value,DOI,compound_type
mp-390,TiO2,True,False,2.0586,-3.508055451944444,[2.86],,10.1186/s11671-016-1503-9,Double anions
mp-390,TiO2,True,False,2.0586,-3.508055451944444,[2.47],,10.1186/s11671-016-1503-9,Double anions
mp-390,TiO2,True,False,2.0586,-3.508055451944444,[3.2],,10.1186/s11671-016-1503-9,Double anions
mp-390,TiO2,True,False,2.0586,-3.508055451944444,[2.81],,10.1186/s11671-016-1503-9,Double anions
mp-390,TiO2,True,False,2.0586,-3.508055451944444,[3.2],,10.1186/s11671-017-2017-9,Double anions
mp-390,TiO2,True,False,2.0586,-3.508055451944444,[3.2],,10.1186/s11671-017-2101-1,Double anions
mp-390,TiO2,True,False,2.0586,-3.508055451944444,[3.4],,10.1186/s40580-014-0009-3,Double anions
mp-390,TiO2,True,False,2.0586,-3.508055451944444,[3.0],,10.1007/s00214-012-1202-2,Double anions
mp-390,TiO2,True,False,2.0586,-3.508055451944444,[0.43],,10.1007/s00214-012-1202-2,Double anions
mp-390,TiO2,True,False,2.0586,-3.508055451944444,[3.21],,10.1007/s00339-008-4682-0,Double anions
mp-390,TiO2,True,False,2.0586,-3.508055451944444,[3.0],,10.1007/s00339-012-6825-6,Double anions
mp-390,TiO2,True,False,2.0586,-3.508055451944444,[3.2],,10.1007/s00339-012-7185-y,Double anions
mp-390,TiO2,True,False,2.0586,-3.508055451944444,[3.2],,10.1007/s00339-012-7368-6,Double anions
mp-390,TiO2,True,False,2.0586,-3.508055451944444,[3.18],,10.1007/s00339-012-7368-6,Double anions
mp-390,TiO2,True,False,2.0586,-3.508055451944444,[3.25],,10.1007/s00339-014-8980-4,Double anions
mp-390,TiO2,True,False,2.0586,-3.508055451944444,[3.56],,10.1007/s00339-015-9254-5,Double anions
mp-390,TiO2,True,False,2.0586,-3.508055451944444,[3.1],,10.1007/s00339-016-0241-2,Double anions
mp-390,TiO2,True,False,2.0586,-3.508055451944444,[3.2],,10.1007/s00339-016-9950-9,Double anions
mp-390,TiO2,True,False,2.0586,-3.508055451944444,[3.2],,10.1007/s00339-018-1735-x,Double anions
mp-390,TiO2,True,False,2.0586,-3.508055451944444,[3.26],,10.1007/s00339-018-1735-x,Double anions
mp-390,TiO2,True,False,2.0586,-3.508055451944444,[4.54],,10.1007/s00339-018-1964-z,Double anions
mp-390,TiO2,True,False,2.0586,-3.508055451944444,[3.1],300,10.1007/s00339-019-2581-1,Double anions
mp-390,TiO2,True,False,2.0586,-3.508055451944444,[3.22],,10.1007/s00339-019-2993-y,Double anions
mp-390,TiO2,True,False,2.0586,-3.508055451944444,[3.33],250,10.1007/s00339-019-2993-y,Double anions
mp-390,TiO2,True,False,2.0586,-3.508055451944444,[3.2],,10.1007/s00339-019-2993-y,Double anions
mp-390,TiO2,True,False,2.0586,-3.508055451944444,[3.33],350,10.1007/s00339-019-2993-y,Double anions
mp-390,TiO2,True,False,2.0586,-3.508055451944444,[2.85],,10.1007/s00339-019-3200-x,Double anions
mp-390,TiO2,True,False,2.0586,-3.508055451944444,[2.1],,10.1007/s00339-019-3200-x,Double anions
mp-390,TiO2,True,False,2.0586,-3.508055451944444,[3.23],,10.1007/s00339-020-03656-6,Double anions
mp-390,TiO2,True,False,2.0586,-3.508055451944444,[0.16],,10.1007/s00339-020-03768-z,Double anions
mp-390,TiO2,True,False,2.0586,-3.508055451944444,[3.02],,10.1007/s00339-020-03797-8,Double anions
mp-390,TiO2,True,False,2.0586,-3.508055451944444,[3.1],,10.1007/s00339-020-3320-3,Double anions
mp-390,TiO2,True,False,2.0586,-3.508055451944444,[3.0],,10.1007/s00339-020-3379-x,Double anions
mp-390,TiO2,True,False,2.0586,-3.508055451944444,[2.3],,10.1007/s00339-020-3379-x,Double anions
mp-390,TiO2,True,False,2.0586,-3.508055451944444,[3.4],,10.1007/s00344-019-10046-7,Double anions
mp-390,TiO2,True,False,2.0586,-3.508055451944444,[3.2],,10.1007/s00396-018-4362-3,Double anions
mp-390,TiO2,True,False,2.0586,-3.508055451944444,[3.05],,10.1007/s00773-020-00720-x,Double anions
mp-390,TiO2,True,False,2.0586,-3.508055451944444,[3.05],,10.1007/s10008-011-1605-3,Double anions
mp-390,TiO2,True,False,2.0586,-3.508055451944444,[3.2],,10.1007/s10008-011-1605-3,Double anions
mp-390,TiO2,True,False,2.0586,-3.508055451944444,[3.0],,10.1007/s10008-011-1605-3,Double anions
mp-390,TiO2,True,False,2.0586,-3.508055451944444,[3.2],,10.1007/s10008-015-2758-2,Double anions
mp-390,TiO2,True,False,2.0586,-3.508055451944444,[3.06],,10.1007/s10008-016-3473-3,Double anions
mp-390,TiO2,True,False,2.0586,-3.508055451944444,[1.48],,10.1007/s10008-016-3473-3,Double anions
mp-390,TiO2,True,False,2.0586,-3.508055451944444,[3.2],,10.1007/s10008-018-3911-5,Double anions
mp-390,TiO2,True,False,2.0586,-3.508055451944444,[3.0],,10.1007/s10008-019-04441-z,Double anions
mp-390,TiO2,True,False,2.0586,-3.508055451944444,[3.2],,10.1007/s10008-020-04663-6,Double anions
mp-390,TiO2,True,False,2.0586,-3.508055451944444,[3.2],,10.1007/s10098-016-1174-3,Double anions
mp-390,TiO2,True,False,2.0586,-3.508055451944444,[3.2],,10.1007/s10311-018-0768-x,Double anions
mp-390,TiO2,True,False,2.0586,-3.508055451944444,[3.2],,10.1007/s10311-019-00884-y,Double anions
mp-390,TiO2,True,False,2.0586,-3.508055451944444,[3.2],,10.1007/s10562-008-9681-4,Double anions
mp-390,TiO2,True,False,2.0586,-3.508055451944444,[3.2],,10.1007/s10562-008-9824-7,Double anions
mp-390,TiO2,True,False,2.0586,-3.508055451944444,[3.2],,10.1007/s10562-014-1423-1,Double anions
mp-390,TiO2,True,False,2.0586,-3.508055451944444,[3.0],,10.1007/s10562-017-1998-4,Double anions
mp-390,TiO2,True,False,2.0586,-3.508055451944444,[3.0],,10.1007/s10562-017-2094-5,Double anions
mp-390,TiO2,True,False,2.0586,-3.508055451944444,[3.55],,10.1007/s10562-017-2175-5,Double anions
mp-390,TiO2,True,False,2.0586,-3.508055451944444,[3.2],,10.1007/s10562-018-2377-5,Double anions
mp-390,TiO2,True,False,2.0586,-3.508055451944444,[3.2],,10.1007/s10562-019-02991-5,Double anions
mp-390,TiO2,True,False,2.0586,-3.508055451944444,[3.2],,10.1007/s10570-017-1374-y,Double anions
mp-390,TiO2,True,False,2.0586,-3.508055451944444,[3.2],,10.1007/s10586-018-2505-4,Double anions
mp-390,TiO2,True,False,2.0586,-3.508055451944444,[3.2],,10.1007/s10800-011-0378-9,Double anions
mp-390,TiO2,True,False,2.0586,-3.508055451944444,[3.2],,10.1007/s10800-017-1138-2,Double anions
mp-390,TiO2,True,False,2.0586,-3.508055451944444,[0.97],,10.1007/s10825-019-01376-6,Double anions
mp-390,TiO2,True,False,2.0586,-3.508055451944444,[3.1],,10.1007/s10825-020-01594-3,Double anions
mp-390,TiO2,True,False,2.0586,-3.508055451944444,[3.2],,10.1007/s10847-017-0724-6,Double anions
mp-390,TiO2,True,False,2.0586,-3.508055451944444,[3.2],,10.1007/s10853-006-0411-2,Double anions
mp-390,TiO2,True,False,2.0586,-3.508055451944444,[3.2],,10.1007/s10853-008-3147-3,Double anions
mp-390,TiO2,True,False,2.0586,-3.508055451944444,[3.0],,10.1007/s10853-009-3845-5,Double anions
mp-390,TiO2,True,False,2.0586,-3.508055451944444,[3.34],,10.1007/s10853-010-4448-x,Double anions
mp-390,TiO2,True,False,2.0586,-3.508055451944444,[3.0],,10.1007/s10853-010-5070-7,Double anions
mp-390,TiO2,True,False,2.0586,-3.508055451944444,[3.2],,10.1007/s10853-011-5763-6,Double anions
mp-390,TiO2,True,False,2.0586,-3.508055451944444,[3.08],,10.1007/s10853-014-8045-2,Double anions
mp-390,TiO2,True,False,2.0586,-3.508055451944444,[3.2],,10.1007/s10853-014-8132-4,Double anions
mp-390,TiO2,True,False,2.0586,-3.508055451944444,[7.0],,10.1007/s10853-015-8984-2,Double anions
mp-390,TiO2,True,False,2.0586,-3.508055451944444,[2.97],,10.1007/s10853-015-8984-2,Double anions
mp-390,TiO2,True,False,2.0586,-3.508055451944444,[3.1],,10.1007/s10853-015-9303-7,Double anions
mp-390,TiO2,True,False,2.0586,-3.508055451944444,[3.4],,10.1007/s10853-015-9303-7,Double anions
mp-390,TiO2,True,False,2.0586,-3.508055451944444,[3.2],,10.1007/s10853-015-9417-y,Double anions
mp-390,TiO2,True,False,2.0586,-3.508055451944444,[2.44],,10.1007/s10853-016-0414-6,Double anions
mp-390,TiO2,True,False,2.0586,-3.508055451944444,[3.2],,10.1007/s10853-016-0717-7,Double anions
mp-390,TiO2,True,False,2.0586,-3.508055451944444,[2.12],,10.1007/s10853-016-0717-7,Double anions
mp-390,TiO2,True,False,2.0586,-3.508055451944444,[3.2],,10.1007/s10853-017-0898-8,Double anions
mp-390,TiO2,True,False,2.0586,-3.508055451944444,[2.19],,10.1007/s10853-017-0898-8,Double anions
mp-390,TiO2,True,False,2.0586,-3.508055451944444,[3.2],,10.1007/s10853-017-1505-8,Double anions
mp-390,TiO2,True,False,2.0586,-3.508055451944444,[2.89],,10.1007/s10853-018-03204-x,Double anions
mp-390,TiO2,True,False,2.0586,-3.508055451944444,[3.2],,10.1007/s10853-018-2064-3,Double anions
mp-390,TiO2,True,False,2.0586,-3.508055451944444,[3.6],,10.1007/s10853-018-2092-z,Double anions
mp-390,TiO2,True,False,2.0586,-3.508055451944444,[3.18],,10.1007/s10853-018-2210-y,Double anions
mp-390,TiO2,True,False,2.0586,-3.508055451944444,[3.2],,10.1007/s10853-018-2334-0,Double anions
mp-390,TiO2,True,False,2.0586,-3.508055451944444,[3.25],,10.1007/s10853-018-2442-x,Double anions
mp-390,TiO2,True,False,2.0586,-3.508055451944444,[3.0],,10.1007/s10853-018-2542-7,Double anions
mp-390,TiO2,True,False,2.0586,-3.508055451944444,[2.75],,10.1007/s10853-018-2542-7,Double anions
mp-390,TiO2,True,False,2.0586,-3.508055451944444,[2.97],,10.1007/s10853-018-2542-7,Double anions
mp-390,TiO2,True,False,2.0586,-3.508055451944444,[3.53],,10.1007/s10853-018-2542-7,Double anions
mp-390,TiO2,True,False,2.0586,-3.508055451944444,[2.85],,10.1007/s10853-018-2542-7,Double anions
mp-390,TiO2,True,False,2.0586,-3.508055451944444,[3.2],,10.1007/s10853-019-03692-5,Double anions
mp-390,TiO2,True,False,2.0586,-3.508055451944444,[3.2],,10.1007/s10853-019-03804-1,Double anions
mp-390,TiO2,True,False,2.0586,-3.508055451944444,[3.4],,10.1007/s10853-019-04282-1,Double anions
mp-390,TiO2,True,False,2.0586,-3.508055451944444,[3.35],,10.1007/s10853-019-04305-x,Double anions
mp-390,TiO2,True,False,2.0586,-3.508055451944444,[3.2],,10.1007/s10853-019-04305-x,Double anions
mp-390,TiO2,True,False,2.0586,-3.508055451944444,[3.4],,10.1007/s10853-020-04592-9,Double anions
mp-390,TiO2,True,False,2.0586,-3.508055451944444,[3.2],,10.1007/s10854-014-1894-2,Double anions
mp-390,TiO2,True,False,2.0586,-3.508055451944444,[1.79],600,10.1007/s10854-014-1894-2,Double anions
mp-390,TiO2,True,False,2.0586,-3.508055451944444,[3.2],,10.1007/s10854-015-3462-9,Double anions
mp-390,TiO2,True,False,2.0586,-3.508055451944444,[3.2],600,10.1007/s10854-015-3462-9,Double anions
mp-390,TiO2,True,False,2.0586,-3.508055451944444,[3.2],,10.1007/s10854-015-3908-0,Double anions
mp-390,TiO2,True,False,2.0586,-3.508055451944444,[3.2],,10.1007/s10854-015-3957-4,Double anions
mp-390,TiO2,True,False,2.0586,-3.508055451944444,[3.23],,10.1007/s10854-015-3957-4,Double anions
mp-390,TiO2,True,False,2.0586,-3.508055451944444,[3.0],,10.1007/s10854-015-4149-y,Double anions
mp-390,TiO2,True,False,2.0586,-3.508055451944444,[2.77],,10.1007/s10854-016-4471-z,Double anions
mp-390,TiO2,True,False,2.0586,-3.508055451944444,[3.2],,10.1007/s10854-016-4887-5,Double anions
mp-390,TiO2,True,False,2.0586,-3.508055451944444,[3.2],,10.1007/s10854-016-5403-7,Double anions
mp-390,TiO2,True,False,2.0586,-3.508055451944444,[3.06],,10.1007/s10854-016-5525-y,Double anions
mp-390,TiO2,True,False,2.0586,-3.508055451944444,[3.2],,10.1007/s10854-016-5576-0,Double anions
mp-390,TiO2,True,False,2.0586,-3.508055451944444,[3.12],,10.1007/s10854-016-5958-3,Double anions
mp-390,TiO2,True,False,2.0586,-3.508055451944444,[3.2],,10.1007/s10854-016-6063-3,Double anions
mp-390,TiO2,True,False,2.0586,-3.508055451944444,[2.44],,10.1007/s10854-016-6179-5,Double anions
mp-390,TiO2,True,False,2.0586,-3.508055451944444,[3.27],,10.1007/s10854-017-6396-6,Double anions
mp-390,TiO2,True,False,2.0586,-3.508055451944444,[2.88],,10.1007/s10854-017-6488-3,Double anions
mp-390,TiO2,True,False,2.0586,-3.508055451944444,[3.1],,10.1007/s10854-017-6883-9,Double anions
mp-390,TiO2,True,False,2.0586,-3.508055451944444,[3.37],,10.1007/s10854-017-7254-2,Double anions
mp-390,TiO2,True,False,2.0586,-3.508055451944444,[3.0],,10.1007/s10854-017-7317-4,Double anions
mp-390,TiO2,True,False,2.0586,-3.508055451944444,[3.2],,10.1007/s10854-017-7762-0,Double anions
mp-390,TiO2,True,False,2.0586,-3.508055451944444,[3.2],,10.1007/s10854-017-8023-y,Double anions
mp-390,TiO2,True,False,2.0586,-3.508055451944444,[3.28],,10.1007/s10854-017-8023-y,Double anions
mp-390,TiO2,True,False,2.0586,-3.508055451944444,[3.2],,10.1007/s10854-017-8137-2,Double anions
mp-390,TiO2,True,False,2.0586,-3.508055451944444,[3.02],,10.1007/s10854-017-8309-0,Double anions
mp-390,TiO2,True,False,2.0586,-3.508055451944444,[2.49],,10.1007/s10854-017-8309-0,Double anions
mp-390,TiO2,True,False,2.0586,-3.508055451944444,[3.0],,10.1007/s10854-018-0156-0,Double anions
mp-390,TiO2,True,False,2.0586,-3.508055451944444,[3.2],,10.1007/s10854-018-0460-8,Double anions
mp-390,TiO2,True,False,2.0586,-3.508055451944444,[3.2],,10.1007/s10854-018-0472-4,Double anions
mp-390,TiO2,True,False,2.0586,-3.508055451944444,[3.1],,10.1007/s10854-018-0472-4,Double anions
mp-390,TiO2,True,False,2.0586,-3.508055451944444,[2.93],,10.1007/s10854-018-8562-x,Double anions
mp-390,TiO2,True,False,2.0586,-3.508055451944444,[3.2],,10.1007/s10854-018-8663-6,Double anions
mp-390,TiO2,True,False,2.0586,-3.508055451944444,[3.2],,10.1007/s10854-018-8949-8,Double anions
mp-390,TiO2,True,False,2.0586,-3.508055451944444,[3.2],,10.1007/s10854-018-9197-7,Double anions
mp-390,TiO2,True,False,2.0586,-3.508055451944444,[3.05],,10.1007/s10854-018-9325-4,Double anions
mp-390,TiO2,True,False,2.0586,-3.508055451944444,[1.74],,10.1007/s10854-018-9715-7,Double anions
mp-390,TiO2,True,False,2.0586,-3.508055451944444,[3.23],,10.1007/s10854-018-9749-x,Double anions
mp-390,TiO2,True,False,2.0586,-3.508055451944444,[3.12],,10.1007/s10854-019-00976-z,Double anions
mp-390,TiO2,True,False,2.0586,-3.508055451944444,[3.2],,10.1007/s10854-019-01587-4,Double anions
mp-390,TiO2,True,False,2.0586,-3.508055451944444,[3.6],,10.1007/s10854-019-01706-1,Double anions
mp-390,TiO2,True,False,2.0586,-3.508055451944444,[3.0],,10.1007/s10854-019-02569-2,Double anions
mp-390,TiO2,True,False,2.0586,-3.508055451944444,[2.4],,10.1007/s10854-020-02887-w,Double anions
mp-390,TiO2,True,False,2.0586,-3.508055451944444,[3.2],,10.1007/s10876-011-0425-z,Double anions
mp-390,TiO2,True,False,2.0586,-3.508055451944444,[3.2],,10.1007/s10876-013-0604-1,Double anions
mp-390,TiO2,True,False,2.0586,-3.508055451944444,[3.47],,10.1007/s10876-014-0687-3,Double anions
mp-390,TiO2,True,False,2.0586,-3.508055451944444,[3.2],,10.1007/s10876-014-0687-3,Double anions
mp-390,TiO2,True,False,2.0586,-3.508055451944444,[3.2],,10.1007/s10876-015-0859-9,Double anions
mp-390,TiO2,True,False,2.0586,-3.508055451944444,[3.25],,10.1007/s10876-015-0859-9,Double anions
mp-390,TiO2,True,False,2.0586,-3.508055451944444,[2.25],,10.1007/s10895-006-0080-1,Double anions
mp-390,TiO2,True,False,2.0586,-3.508055451944444,[3.19],,10.1007/s10895-006-0080-1,Double anions
mp-390,TiO2,True,False,2.0586,-3.508055451944444,[3.26],,10.1007/s10895-006-0080-1,Double anions
mp-390,TiO2,True,False,2.0586,-3.508055451944444,[3.25],,10.1007/s10895-006-0080-1,Double anions
mp-390,TiO2,True,False,2.0586,-3.508055451944444,[3.2],,10.1007/s10895-017-2041-2,Double anions
mp-390,TiO2,True,False,2.0586,-3.508055451944444,[3.2],,10.1007/s10904-017-0590-0,Double anions
mp-390,TiO2,True,False,2.0586,-3.508055451944444,[3.2],,10.1007/s10904-017-0680-z,Double anions
mp-390,TiO2,True,False,2.0586,-3.508055451944444,[3.3],,10.1007/s10904-018-1038-x,Double anions
mp-390,TiO2,True,False,2.0586,-3.508055451944444,[3.2],,10.1007/s10904-019-01378-8,Double anions
mp-390,TiO2,True,False,2.0586,-3.508055451944444,[3.03],,10.1007/s10904-020-01491-z,Double anions
mp-390,TiO2,True,False,2.0586,-3.508055451944444,[3.1],,10.1007/s10934-013-9721-3,Double anions
mp-390,TiO2,True,False,2.0586,-3.508055451944444,[3.2],,10.1007/s10948-018-4619-6,Double anions
mp-390,TiO2,True,False,2.0586,-3.508055451944444,[3.2],,10.1007/s10967-016-5159-9,Double anions
mp-390,TiO2,True,False,2.0586,-3.508055451944444,[3.2],,10.1007/s10971-007-1545-7,Double anions
mp-390,TiO2,True,False,2.0586,-3.508055451944444,[3.22],,10.1007/s10971-009-2102-3,Double anions
mp-390,TiO2,True,False,2.0586,-3.508055451944444,[2.8],,10.1007/s10971-010-2322-6,Double anions
mp-390,TiO2,True,False,2.0586,-3.508055451944444,[3.18],,10.1007/s10971-010-2322-6,Double anions
mp-390,TiO2,True,False,2.0586,-3.508055451944444,[3.2],,10.1007/s10971-010-2390-7,Double anions
mp-390,TiO2,True,False,2.0586,-3.508055451944444,[3.2],,10.1007/s10971-011-2458-z,Double anions
mp-390,TiO2,True,False,2.0586,-3.508055451944444,[3.18],,10.1007/s10971-011-2561-1,Double anions
mp-390,TiO2,True,False,2.0586,-3.508055451944444,[3.0],,10.1007/s10971-012-2756-0,Double anions
mp-390,TiO2,True,False,2.0586,-3.508055451944444,[3.2],,10.1007/s10971-012-2878-4,Double anions
mp-390,TiO2,True,False,2.0586,-3.508055451944444,[3.13],,10.1007/s10971-012-2910-8,Double anions
mp-390,TiO2,True,False,2.0586,-3.508055451944444,[3.0],,10.1007/s10971-013-3052-3,Double anions
mp-390,TiO2,True,False,2.0586,-3.508055451944444,[3.26],,10.1007/s10971-013-3073-y,Double anions
mp-390,TiO2,True,False,2.0586,-3.508055451944444,[3.2],,10.1007/s10971-013-3231-2,Double anions
mp-390,TiO2,True,False,2.0586,-3.508055451944444,[2.98],,10.1007/s10971-014-3393-6,Double anions
mp-390,TiO2,True,False,2.0586,-3.508055451944444,[2.9],,10.1007/s10971-014-3507-1,Double anions
mp-390,TiO2,True,False,2.0586,-3.508055451944444,[3.2],,10.1007/s10971-014-3538-7,Double anions
mp-390,TiO2,True,False,2.0586,-3.508055451944444,[3.7],,10.1007/s10971-015-3836-8,Double anions
mp-390,TiO2,True,False,2.0586,-3.508055451944444,[3.2],,10.1007/s10971-016-3993-4,Double anions
mp-390,TiO2,True,False,2.0586,-3.508055451944444,[3.2],,10.1007/s10971-016-4057-5,Double anions
mp-390,TiO2,True,False,2.0586,-3.508055451944444,[3.2],,10.1007/s10971-016-4276-9,Double anions
mp-390,TiO2,True,False,2.0586,-3.508055451944444,[3.2],,10.1007/s10971-016-4298-3,Double anions
mp-390,TiO2,True,False,2.0586,-3.508055451944444,[3.16],,10.1007/s10971-016-4298-3,Double anions
mp-390,TiO2,True,False,2.0586,-3.508055451944444,[2.8],,10.1007/s10971-017-4396-x,Double anions
mp-390,TiO2,True,False,2.0586,-3.508055451944444,[3.2],,10.1007/s10971-019-04972-x,Double anions
mp-390,TiO2,True,False,2.0586,-3.508055451944444,[3.2],,10.1007/s10971-019-05101-4,Double anions
mp-390,TiO2,True,False,2.0586,-3.508055451944444,[3.0],,10.1007/s10971-019-05101-4,Double anions
mp-390,TiO2,True,False,2.0586,-3.508055451944444,[2.98],,10.1007/s10971-019-05101-4,Double anions
mp-390,TiO2,True,False,2.0586,-3.508055451944444,[2.8],,10.1007/s10971-019-05199-6,Double anions
mp-390,TiO2,True,False,2.0586,-3.508055451944444,[3.2],,10.1007/s10971-019-05199-6,Double anions
mp-390,TiO2,True,False,2.0586,-3.508055451944444,[2.63],,10.1007/s10971-020-05260-9,Double anions
mp-390,TiO2,True,False,2.0586,-3.508055451944444,[3.2],,10.1007/s10973-012-2436-x,Double anions
mp-390,TiO2,True,False,2.0586,-3.508055451944444,[2.0],,10.1007/s10973-019-08896-0,Double anions
mp-390,TiO2,True,False,2.0586,-3.508055451944444,[3.21],,10.1007/s11051-010-0049-5,Double anions
mp-390,TiO2,True,False,2.0586,-3.508055451944444,[3.2],,10.1007/s11051-014-2377-3,Double anions
mp-390,TiO2,True,False,2.0586,-3.508055451944444,[3.2],,10.1007/s11051-014-2659-9,Double anions
mp-390,TiO2,True,False,2.0586,-3.508055451944444,[3.2],,10.1007/s11051-014-2713-7,Double anions
mp-390,TiO2,True,False,2.0586,-3.508055451944444,[3.2],,10.1007/s11051-015-2996-3,Double anions
mp-390,TiO2,True,False,2.0586,-3.508055451944444,[3.25],,10.1007/s11051-015-3112-4,Double anions
mp-390,TiO2,True,False,2.0586,-3.508055451944444,[3.2],,10.1007/s11051-016-3437-7,Double anions
mp-390,TiO2,True,False,2.0586,-3.508055451944444,[3.2],,10.1007/s11051-016-3464-4,Double anions
mp-390,TiO2,True,False,2.0586,-3.508055451944444,[3.2],,10.1007/s11051-017-3934-3,Double anions
mp-390,TiO2,True,False,2.0586,-3.508055451944444,[2.98],,10.1007/s11051-017-3982-8,Double anions
mp-390,TiO2,True,False,2.0586,-3.508055451944444,[2.97],,10.1007/s11051-019-4633-z,Double anions