mpids,formula,is_stable,theoretical,band_gap,formation_energy_per_atom,Value,Temperature_raw_value,DOI,compound_type
mp-390,TiO2,True,False,2.0586,-3.508055451944444,[3.2],,10.1039/c6nj03607d,Double anions
mp-390,TiO2,True,False,2.0586,-3.508055451944444,[2.97],,10.1039/c6nj03687b,Double anions
mp-390,TiO2,True,False,2.0586,-3.508055451944444,[3.2],,10.1039/c6nr01491g,Double anions
mp-390,TiO2,True,False,2.0586,-3.508055451944444,[3.65],,10.1039/c6nr05917a,Double anions
mp-390,TiO2,True,False,2.0586,-3.508055451944444,[3.2],,10.1039/c6nr06583j,Double anions
mp-390,TiO2,True,False,2.0586,-3.508055451944444,[3.2],,10.1039/c6nr09584d,Double anions
mp-390,TiO2,True,False,2.0586,-3.508055451944444,[3.2],,10.1039/c6pp00022c,Double anions
mp-390,TiO2,True,False,2.0586,-3.508055451944444,[3.2],,10.1039/c6pp00432f,Double anions
mp-390,TiO2,True,False,2.0586,-3.508055451944444,[3.2],,10.1039/c6pp00465b,Double anions
mp-390,TiO2,True,False,2.0586,-3.508055451944444,[3.12],,10.1039/c6ra01707j,Double anions
mp-390,TiO2,True,False,2.0586,-3.508055451944444,[3.0],,10.1039/c6ra01752e,Double anions
mp-390,TiO2,True,False,2.0586,-3.508055451944444,[3.26],,10.1039/c6ra02543a,Double anions
mp-390,TiO2,True,False,2.0586,-3.508055451944444,[3.2],,10.1039/c6ra02655a,Double anions
mp-390,TiO2,True,False,2.0586,-3.508055451944444,[2.53],,10.1039/c6ra02806c,Double anions
mp-390,TiO2,True,False,2.0586,-3.508055451944444,[2.93],,10.1039/c6ra02806c,Double anions
mp-390,TiO2,True,False,2.0586,-3.508055451944444,[3.2],,10.1039/c6ra02827f,Double anions
mp-390,TiO2,True,False,2.0586,-3.508055451944444,[3.2],,10.1039/c6ra02966c,Double anions
mp-390,TiO2,True,False,2.0586,-3.508055451944444,[3.1],,10.1039/c6ra02966c,Double anions
mp-390,TiO2,True,False,2.0586,-3.508055451944444,[3.2],,10.1039/c6ra03340g,Double anions
mp-390,TiO2,True,False,2.0586,-3.508055451944444,[2.2],,10.1039/c6ra03376h,Double anions
mp-390,TiO2,True,False,2.0586,-3.508055451944444,[3.3],,10.1039/c6ra03738k,Double anions
mp-390,TiO2,True,False,2.0586,-3.508055451944444,[3.2],,10.1039/c6ra03738k,Double anions
mp-390,TiO2,True,False,2.0586,-3.508055451944444,[2.4],,10.1039/c6ra04305d,Double anions
mp-390,TiO2,True,False,2.0586,-3.508055451944444,[3.05],,10.1039/c6ra05857d,Double anions
mp-390,TiO2,True,False,2.0586,-3.508055451944444,[3.02],,10.1039/c6ra05857d,Double anions
mp-390,TiO2,True,False,2.0586,-3.508055451944444,[3.0],,10.1039/c6ra06410h,Double anions
mp-390,TiO2,True,False,2.0586,-3.508055451944444,[2.95],,10.1039/c6ra06410h,Double anions
mp-390,TiO2,True,False,2.0586,-3.508055451944444,[2.67],,10.1039/c6ra06410h,Double anions
mp-390,TiO2,True,False,2.0586,-3.508055451944444,[3.2],,10.1039/c6ra06777h,Double anions
mp-390,TiO2,True,False,2.0586,-3.508055451944444,[3.2],,10.1039/c6ra06893f,Double anions
mp-390,TiO2,True,False,2.0586,-3.508055451944444,[3.2],,10.1039/c6ra09525a,Double anions
mp-390,TiO2,True,False,2.0586,-3.508055451944444,[3.1],,10.1039/c6ra09525a,Double anions
mp-390,TiO2,True,False,2.0586,-3.508055451944444,[3.15],,10.1039/c6ra09525a,Double anions
mp-390,TiO2,True,False,2.0586,-3.508055451944444,[2.74],300,10.1039/c6ra10371e,Double anions
mp-390,TiO2,True,False,2.0586,-3.508055451944444,[3.16],300,10.1039/c6ra10371e,Double anions
mp-390,TiO2,True,False,2.0586,-3.508055451944444,[3.2],,10.1039/c6ra10434g,Double anions
mp-390,TiO2,True,False,2.0586,-3.508055451944444,[3.2],,10.1039/c6ra10747h,Double anions
mp-390,TiO2,True,False,2.0586,-3.508055451944444,[3.2],,10.1039/c6ra12898j,Double anions
mp-390,TiO2,True,False,2.0586,-3.508055451944444,[3.2],,10.1039/c6ra13521h,Double anions
mp-390,TiO2,True,False,2.0586,-3.508055451944444,[2.95],,10.1039/c6ra13521h,Double anions
mp-390,TiO2,True,False,2.0586,-3.508055451944444,[3.2],,10.1039/c6ra14700c,Double anions
mp-390,TiO2,True,False,2.0586,-3.508055451944444,[3.56],,10.1039/c6ra15060h,Double anions
mp-390,TiO2,True,False,2.0586,-3.508055451944444,[3.29],,10.1039/c6ra15060h,Double anions
mp-390,TiO2,True,False,2.0586,-3.508055451944444,[3.2],,10.1039/c6ra15435b,Double anions
mp-390,TiO2,True,False,2.0586,-3.508055451944444,[2.82],,10.1039/c6ra16141c,Double anions
mp-390,TiO2,True,False,2.0586,-3.508055451944444,[3.17],,10.1039/c6ra16141c,Double anions
mp-390,TiO2,True,False,2.0586,-3.508055451944444,[2.79],,10.1039/c6ra17884g,Double anions
mp-390,TiO2,True,False,2.0586,-3.508055451944444,[3.2],,10.1039/c6ra18081g,Double anions
mp-390,TiO2,True,False,2.0586,-3.508055451944444,[3.21],,10.1039/c6ra18758g,Double anions
mp-390,TiO2,True,False,2.0586,-3.508055451944444,[3.2],,10.1039/c6ra18855a,Double anions
mp-390,TiO2,True,False,2.0586,-3.508055451944444,[3.2],,10.1039/c6ra18954g,Double anions
mp-390,TiO2,True,False,2.0586,-3.508055451944444,[3.0],,10.1039/c6ra19815e,Double anions
mp-390,TiO2,True,False,2.0586,-3.508055451944444,[3.17],,10.1039/c6ra19815e,Double anions
mp-390,TiO2,True,False,2.0586,-3.508055451944444,[3.2],,10.1039/c6ra20605k,Double anions
mp-390,TiO2,True,False,2.0586,-3.508055451944444,[3.2],,10.1039/c6ra23449f,Double anions
mp-390,TiO2,True,False,2.0586,-3.508055451944444,[3.18],,10.1039/c6ra23449f,Double anions
mp-390,TiO2,True,False,2.0586,-3.508055451944444,[3.0],,10.1039/c6ra25238a,Double anions
mp-390,TiO2,True,False,2.0586,-3.508055451944444,[3.0],,10.1039/c6ra25274e,Double anions
mp-390,TiO2,True,False,2.0586,-3.508055451944444,[2.96],,10.1039/c6ra25964b,Double anions
mp-390,TiO2,True,False,2.0586,-3.508055451944444,[2.8],,10.1039/c6ra27187a,Double anions
mp-390,TiO2,True,False,2.0586,-3.508055451944444,[3.6],,10.1039/c6ra27235e,Double anions
mp-390,TiO2,True,False,2.0586,-3.508055451944444,[3.2],,10.1039/c6ra28669k,Double anions
mp-390,TiO2,True,False,2.0586,-3.508055451944444,[2.63],,10.1039/c6ra28669k,Double anions
mp-390,TiO2,True,False,2.0586,-3.508055451944444,[3.2],,10.1039/c6ta02307j,Double anions
mp-390,TiO2,True,False,2.0586,-3.508055451944444,[3.2],,10.1039/c6ta07420k,Double anions
mp-390,TiO2,True,False,2.0586,-3.508055451944444,[3.4],300,10.1039/c6ta08110j,Double anions
mp-390,TiO2,True,False,2.0586,-3.508055451944444,[1.6],,10.1039/c6ta10202f,Double anions
mp-390,TiO2,True,False,2.0586,-3.508055451944444,[3.2],,10.1039/c6ta11121a,Double anions
mp-390,TiO2,True,False,2.0586,-3.508055451944444,[3.2],,10.1039/c6tb01807f,Double anions
mp-390,TiO2,True,False,2.0586,-3.508055451944444,[2.7],,10.1039/c7cc04515h,Double anions
mp-390,TiO2,True,False,2.0586,-3.508055451944444,[3.0],,10.1039/c7cc07969a,Double anions
mp-390,TiO2,True,False,2.0586,-3.508055451944444,[3.2],,10.1039/c7ce00374a,Double anions
mp-390,TiO2,True,False,2.0586,-3.508055451944444,[3.2],,10.1039/c7ce01545c,Double anions
mp-390,TiO2,True,False,2.0586,-3.508055451944444,[3.2],,10.1039/c7cp03399k,Double anions
mp-390,TiO2,True,False,2.0586,-3.508055451944444,[3.2],,10.1039/c7cp03796a,Double anions
mp-390,TiO2,True,False,2.0586,-3.508055451944444,[3.15],,10.1039/c7cp04155a,Double anions
mp-390,TiO2,True,False,2.0586,-3.508055451944444,[3.02],,10.1039/c7cp05106a,Double anions
mp-390,TiO2,True,False,2.0586,-3.508055451944444,[2.709],,10.1039/c7cp05106a,Double anions
mp-390,TiO2,True,False,2.0586,-3.508055451944444,[2.99],,10.1039/c7cp06270b,Double anions
mp-390,TiO2,True,False,2.0586,-3.508055451944444,[3.0],,10.1039/c7cs00076f,Double anions
mp-390,TiO2,True,False,2.0586,-3.508055451944444,[3.2],,10.1039/c7cy00133a,Double anions
mp-390,TiO2,True,False,2.0586,-3.508055451944444,[3.2],,10.1039/c7cy00366h,Double anions
mp-390,TiO2,True,False,2.0586,-3.508055451944444,[3.2],,10.1039/c7cy00644f,Double anions
mp-390,TiO2,True,False,2.0586,-3.508055451944444,[3.2],,10.1039/c7cy01037k,Double anions
mp-390,TiO2,True,False,2.0586,-3.508055451944444,[0.1],,10.1039/c7cy01326d,Double anions
mp-390,TiO2,True,False,2.0586,-3.508055451944444,[3.2],,10.1039/c7cy01784g,Double anions
mp-390,TiO2,True,False,2.0586,-3.508055451944444,[3.2],,10.1039/c7cy02314f,Double anions
mp-390,TiO2,True,False,2.0586,-3.508055451944444,[3.25],,10.1039/c7cy02314f,Double anions
mp-390,TiO2,True,False,2.0586,-3.508055451944444,[3.2],,10.1039/c7cy02325a,Double anions
mp-390,TiO2,True,False,2.0586,-3.508055451944444,[2.7],,10.1039/c7cy02325a,Double anions
mp-390,TiO2,True,False,2.0586,-3.508055451944444,[3.0],,10.1039/c7dt00970d,Double anions
mp-390,TiO2,True,False,2.0586,-3.508055451944444,[3.0],,10.1039/c7dt02873c,Double anions
mp-390,TiO2,True,False,2.0586,-3.508055451944444,[3.2],,10.1039/c7dt02936e,Double anions
mp-390,TiO2,True,False,2.0586,-3.508055451944444,[3.14],,10.1039/c7dt03268d,Double anions
mp-390,TiO2,True,False,2.0586,-3.508055451944444,[3.2],,10.1039/c7dt03894a,Double anions
mp-390,TiO2,True,False,2.0586,-3.508055451944444,[3.2],,10.1039/c7me00039a,Double anions
mp-390,TiO2,True,False,2.0586,-3.508055451944444,[3.2],,10.1039/c7nj00747g,Double anions
mp-390,TiO2,True,False,2.0586,-3.508055451944444,[3.3],,10.1039/c7nj01535f,Double anions
mp-390,TiO2,True,False,2.0586,-3.508055451944444,[3.2],,10.1039/c7nj02333b,Double anions
mp-390,TiO2,True,False,2.0586,-3.508055451944444,[3.2],,10.1039/c7nj04030j,Double anions
mp-390,TiO2,True,False,2.0586,-3.508055451944444,[3.2],,10.1039/c7nj04606e,Double anions
mp-390,TiO2,True,False,2.0586,-3.508055451944444,[3.1],,10.1039/c7nj04606e,Double anions
mp-390,TiO2,True,False,2.0586,-3.508055451944444,[3.2],,10.1039/c7nj04892k,Double anions
mp-390,TiO2,True,False,2.0586,-3.508055451944444,[3.2],,10.1039/c7nr00704c,Double anions
mp-390,TiO2,True,False,2.0586,-3.508055451944444,[4.2],,10.1039/c7nr02215h,Double anions
mp-390,TiO2,True,False,2.0586,-3.508055451944444,[3.02],,10.1039/c7nr03408c,Double anions
mp-390,TiO2,True,False,2.0586,-3.508055451944444,[3.5],,10.1039/c7nr05695h,Double anions
mp-390,TiO2,True,False,2.0586,-3.508055451944444,[3.2],,10.1039/c7nr06809c,Double anions
mp-390,TiO2,True,False,2.0586,-3.508055451944444,[3.0],,10.1039/c7nr07366f,Double anions
mp-390,TiO2,True,False,2.0586,-3.508055451944444,[2.4],,10.1039/c7nr07366f,Double anions
mp-390,TiO2,True,False,2.0586,-3.508055451944444,[3.2],,10.1039/c7nr08350e,Double anions
mp-390,TiO2,True,False,2.0586,-3.508055451944444,[3.2],,10.1039/c7nr08487k,Double anions
mp-390,TiO2,True,False,2.0586,-3.508055451944444,[3.2],,10.1039/c7qi00751e,Double anions
mp-390,TiO2,True,False,2.0586,-3.508055451944444,[3.16],,10.1039/c7qi00751e,Double anions
mp-390,TiO2,True,False,2.0586,-3.508055451944444,[2.79],,10.1039/c7qi00751e,Double anions
mp-390,TiO2,True,False,2.0586,-3.508055451944444,[3.2],,10.1039/c7ra00002b,Double anions
mp-390,TiO2,True,False,2.0586,-3.508055451944444,[3.2],,10.1039/c7ra00039a,Double anions
mp-390,TiO2,True,False,2.0586,-3.508055451944444,[3.2],,10.1039/c7ra00558j,Double anions
mp-390,TiO2,True,False,2.0586,-3.508055451944444,[2.3],,10.1039/c7ra00850c,Double anions
mp-390,TiO2,True,False,2.0586,-3.508055451944444,[2.6],,10.1039/c7ra00850c,Double anions
mp-390,TiO2,True,False,2.0586,-3.508055451944444,[3.2],,10.1039/c7ra01368j,Double anions
mp-390,TiO2,True,False,2.0586,-3.508055451944444,[3.0],,10.1039/c7ra01648d,Double anions
mp-390,TiO2,True,False,2.0586,-3.508055451944444,[3.01],,10.1039/c7ra02157g,Double anions
mp-390,TiO2,True,False,2.0586,-3.508055451944444,[3.2],,10.1039/c7ra03072j,Double anions
mp-390,TiO2,True,False,2.0586,-3.508055451944444,[3.15],,10.1039/c7ra03072j,Double anions
mp-390,TiO2,True,False,2.0586,-3.508055451944444,[3.2],,10.1039/c7ra03175k,Double anions
mp-390,TiO2,True,False,2.0586,-3.508055451944444,[2.74],,10.1039/c7ra03175k,Double anions
mp-390,TiO2,True,False,2.0586,-3.508055451944444,[3.2],,10.1039/c7ra03435k,Double anions
mp-390,TiO2,True,False,2.0586,-3.508055451944444,[0.2],,10.1039/c7ra04185c,Double anions
mp-390,TiO2,True,False,2.0586,-3.508055451944444,[3.2],,10.1039/c7ra04899h,Double anions
mp-390,TiO2,True,False,2.0586,-3.508055451944444,[3.1],500,10.1039/c7ra05074g,Double anions
mp-390,TiO2,True,False,2.0586,-3.508055451944444,[3.2],,10.1039/c7ra05228f,Double anions
mp-390,TiO2,True,False,2.0586,-3.508055451944444,[3.0],,10.1039/c7ra05276f,Double anions
mp-390,TiO2,True,False,2.0586,-3.508055451944444,[3.2],,10.1039/c7ra05485h,Double anions
mp-390,TiO2,True,False,2.0586,-3.508055451944444,[3.2],,10.1039/c7ra05555b,Double anions
mp-390,TiO2,True,False,2.0586,-3.508055451944444,[3.2],,10.1039/c7ra06051c,Double anions
mp-390,TiO2,True,False,2.0586,-3.508055451944444,[2.4],,10.1039/c7ra06051c,Double anions
mp-390,TiO2,True,False,2.0586,-3.508055451944444,[3.21],,10.1039/c7ra06925a,Double anions
mp-390,TiO2,True,False,2.0586,-3.508055451944444,[3.2],,10.1039/c7ra07253h,Double anions
mp-390,TiO2,True,False,2.0586,-3.508055451944444,[3.2],,10.1039/c7ra07441g,Double anions
mp-390,TiO2,True,False,2.0586,-3.508055451944444,[3.2],,10.1039/c7ra07988e,Double anions
mp-390,TiO2,True,False,2.0586,-3.508055451944444,[3.2],,10.1039/c7ra09903g,Double anions
mp-390,TiO2,True,False,2.0586,-3.508055451944444,[3.2],,10.1039/c7ra10103a,Double anions
mp-390,TiO2,True,False,2.0586,-3.508055451944444,[3.0],,10.1039/c7ra10305k,Double anions
mp-390,TiO2,True,False,2.0586,-3.508055451944444,[3.05],,10.1039/c7ra10546k,Double anions
mp-390,TiO2,True,False,2.0586,-3.508055451944444,[2.94],,10.1039/c7ra10546k,Double anions
mp-390,TiO2,True,False,2.0586,-3.508055451944444,[3.2],,10.1039/c7ra11007c,Double anions
mp-390,TiO2,True,False,2.0586,-3.508055451944444,[2.3],,10.1039/c7ra11996h,Double anions
mp-390,TiO2,True,False,2.0586,-3.508055451944444,[3.2],,10.1039/c7ra12757j,Double anions
mp-390,TiO2,True,False,2.0586,-3.508055451944444,[3.08],,10.1039/c7ra13418e,Double anions
mp-390,TiO2,True,False,2.0586,-3.508055451944444,[2.1],,10.1039/c7se00005g,Double anions
mp-390,TiO2,True,False,2.0586,-3.508055451944444,[3.2],,10.1039/c7ta00493a,Double anions
mp-390,TiO2,True,False,2.0586,-3.508055451944444,[3.14],,10.1039/c7ta02839c,Double anions
mp-390,TiO2,True,False,2.0586,-3.508055451944444,[3.17],,10.1039/c7ta02839c,Double anions
mp-390,TiO2,True,False,2.0586,-3.508055451944444,[1.8],,10.1039/c7ta02839c,Double anions
mp-390,TiO2,True,False,2.0586,-3.508055451944444,[3.25],,10.1039/c7ta03321d,Double anions
mp-390,TiO2,True,False,2.0586,-3.508055451944444,[3.29],,10.1039/c7ta03840b,Double anions
mp-390,TiO2,True,False,2.0586,-3.508055451944444,[1.54],,10.1039/c7ta03878j,Double anions
mp-390,TiO2,True,False,2.0586,-3.508055451944444,[3.2],,10.1039/c7ta03936k,Double anions
mp-390,TiO2,True,False,2.0586,-3.508055451944444,[2.75],,10.1039/c7ta04122e,Double anions
mp-390,TiO2,True,False,2.0586,-3.508055451944444,[2.91],,10.1039/c7ta07808k,Double anions
mp-390,TiO2,True,False,2.0586,-3.508055451944444,[3.1],,10.1039/c7ta08071a,Double anions
mp-390,TiO2,True,False,2.0586,-3.508055451944444,[3.2],,10.1039/c7tb01081h,Double anions
mp-390,TiO2,True,False,2.0586,-3.508055451944444,[3.2],,10.1039/c7tb02354e,Double anions
mp-390,TiO2,True,False,2.0586,-3.508055451944444,[3.37],,10.1039/c7tc01934c,Double anions
mp-390,TiO2,True,False,2.0586,-3.508055451944444,[3.2],,10.1039/c7tc02819a,Double anions
mp-390,TiO2,True,False,2.0586,-3.508055451944444,[3.27],,10.1039/c7tc05140a,Double anions
mp-390,TiO2,True,False,2.0586,-3.508055451944444,[3.25],,10.1039/c7tc05580c,Double anions
mp-390,TiO2,True,False,2.0586,-3.508055451944444,[3.26],,10.1039/c8cc02651c,Double anions
mp-390,TiO2,True,False,2.0586,-3.508055451944444,[3.2],800,10.1039/c8ce00743h,Double anions
mp-390,TiO2,True,False,2.0586,-3.508055451944444,[3.2],,10.1039/c8ce02050g,Double anions
mp-390,TiO2,True,False,2.0586,-3.508055451944444,[1.87],,10.1039/c8ce02050g,Double anions
mp-390,TiO2,True,False,2.0586,-3.508055451944444,[3.35],,10.1039/c8cp00895g,Double anions
mp-390,TiO2,True,False,2.0586,-3.508055451944444,[3.67],,10.1039/c8cp00895g,Double anions
mp-390,TiO2,True,False,2.0586,-3.508055451944444,[3.0],,10.1039/c8cp00895g,Double anions
mp-390,TiO2,True,False,2.0586,-3.508055451944444,[3.3],,10.1039/c8cp01385c,Double anions
mp-390,TiO2,True,False,2.0586,-3.508055451944444,[3.02],,10.1039/c8cp01925h,Double anions
mp-390,TiO2,True,False,2.0586,-3.508055451944444,[0.03],,10.1039/c8cp02270d,Double anions
mp-390,TiO2,True,False,2.0586,-3.508055451944444,[1.0],,10.1039/c8cp02467g,Double anions
mp-390,TiO2,True,False,2.0586,-3.508055451944444,[3.2],,10.1039/c8cp03530j,Double anions
mp-390,TiO2,True,False,2.0586,-3.508055451944444,[3.0],,10.1039/c8cp04614j,Double anions
mp-390,TiO2,True,False,2.0586,-3.508055451944444,[1.54],,10.1039/c8cs00443a,Double anions
mp-390,TiO2,True,False,2.0586,-3.508055451944444,[3.0],,10.1039/c8cs00638e,Double anions
mp-390,TiO2,True,False,2.0586,-3.508055451944444,[3.2],,10.1039/c8cs00638e,Double anions
mp-390,TiO2,True,False,2.0586,-3.508055451944444,[3.2],,10.1039/c8cs00868j,Double anions
mp-390,TiO2,True,False,2.0586,-3.508055451944444,[1.3],,10.1039/c8cs00868j,Double anions
mp-390,TiO2,True,False,2.0586,-3.508055451944444,[3.1],,10.1039/c8cs00897c,Double anions
mp-390,TiO2,True,False,2.0586,-3.508055451944444,[3.2],,10.1039/c8cy00965a,Double anions
mp-390,TiO2,True,False,2.0586,-3.508055451944444,[3.16],,10.1039/c8cy00965a,Double anions
mp-390,TiO2,True,False,2.0586,-3.508055451944444,[2.72],,10.1039/c8cy00965a,Double anions
mp-390,TiO2,True,False,2.0586,-3.508055451944444,[3.21],,10.1039/c8cy01035h,Double anions
mp-390,TiO2,True,False,2.0586,-3.508055451944444,[3.2],,10.1039/c8cy02226g,Double anions
mp-390,TiO2,True,False,2.0586,-3.508055451944444,[3.2],,10.1039/c8dt01625a,Double anions
mp-390,TiO2,True,False,2.0586,-3.508055451944444,[3.2],,10.1039/c8dt04496a,Double anions
mp-390,TiO2,True,False,2.0586,-3.508055451944444,[3.2],,10.1039/c8dt04578j,Double anions
mp-390,TiO2,True,False,2.0586,-3.508055451944444,[3.2],,10.1039/c8ee02852d,Double anions
mp-390,TiO2,True,False,2.0586,-3.508055451944444,[3.15],,10.1039/c8en00389k,Double anions
mp-390,TiO2,True,False,2.0586,-3.508055451944444,[3.2],,10.1039/c8en00866c,Double anions
mp-390,TiO2,True,False,2.0586,-3.508055451944444,[3.07],,10.1039/c8en00866c,Double anions
mp-390,TiO2,True,False,2.0586,-3.508055451944444,[3.6],,10.1039/c8fd00181b,Double anions
mp-390,TiO2,True,False,2.0586,-3.508055451944444,[3.2],,10.1039/c8ja00354h,Double anions
mp-390,TiO2,True,False,2.0586,-3.508055451944444,[3.1],,10.1039/c8mh01606b,Double anions
mp-390,TiO2,True,False,2.0586,-3.508055451944444,[3.0],,10.1039/c8nh00062j,Double anions
mp-390,TiO2,True,False,2.0586,-3.508055451944444,[3.19],,10.1039/c8nj00180d,Double anions
mp-390,TiO2,True,False,2.0586,-3.508055451944444,[3.2],,10.1039/c8nj00351c,Double anions
mp-390,TiO2,True,False,2.0586,-3.508055451944444,[3.19],,10.1039/c8nj00409a,Double anions
mp-390,TiO2,True,False,2.0586,-3.508055451944444,[3.2],,10.1039/c8nj04003f,Double anions
mp-390,TiO2,True,False,2.0586,-3.508055451944444,[3.21],,10.1039/c8nj04292f,Double anions
mp-390,TiO2,True,False,2.0586,-3.508055451944444,[3.2],,10.1039/c8nj06371k,Double anions
mp-390,TiO2,True,False,2.0586,-3.508055451944444,[2.86],,10.1039/c8nj06371k,Double anions
mp-390,TiO2,True,False,2.0586,-3.508055451944444,[3.2],,10.1039/c8nr02418a,Double anions
mp-390,TiO2,True,False,2.0586,-3.508055451944444,[3.2],,10.1039/c8nr03040e,Double anions
mp-390,TiO2,True,False,2.0586,-3.508055451944444,[3.27],,10.1039/c8nr03040e,Double anions
mp-390,TiO2,True,False,2.0586,-3.508055451944444,[3.2],,10.1039/c8nr07073c,Double anions
mp-390,TiO2,True,False,2.0586,-3.508055451944444,[3.0],,10.1039/c8nr09666j,Double anions
mp-390,TiO2,True,False,2.0586,-3.508055451944444,[3.46],,10.1039/c8nr09666j,Double anions
mp-390,TiO2,True,False,2.0586,-3.508055451944444,[3.6],,10.1039/c8nr09836k,Double anions
mp-390,TiO2,True,False,2.0586,-3.508055451944444,[3.2],,10.1039/c8nr10476j,Double anions
mp-390,TiO2,True,False,2.0586,-3.508055451944444,[3.2],,10.1039/c8qi01336e,Double anions
mp-390,TiO2,True,False,2.0586,-3.508055451944444,[1.8],,10.1039/c8qm00537k,Double anions
mp-390,TiO2,True,False,2.0586,-3.508055451944444,[3.2],,10.1039/c8ra00259b,Double anions
mp-390,TiO2,True,False,2.0586,-3.508055451944444,[3.2],,10.1039/c8ra02427h,Double anions