mpids,formula,is_stable,theoretical,band_gap,formation_energy_per_atom,Value,Temperature_raw_value,DOI,compound_type
mp-390,TiO2,True,False,2.0586,-3.508055451944444,[3.7],,10.1039/c3nr00321c,Double anions
mp-390,TiO2,True,False,2.0586,-3.508055451944444,[3.2],,10.1039/c3nr00517h,Double anions
mp-390,TiO2,True,False,2.0586,-3.508055451944444,[3.1],,10.1039/c3nr02502k,Double anions
mp-390,TiO2,True,False,2.0586,-3.508055451944444,[3.2],,10.1039/c3nr04260j,Double anions
mp-390,TiO2,True,False,2.0586,-3.508055451944444,[3.17],,10.1039/c3nr04655a,Double anions
mp-390,TiO2,True,False,2.0586,-3.508055451944444,[3.2],,10.1039/c3nr04785g,Double anions
mp-390,TiO2,True,False,2.0586,-3.508055451944444,[3.2],,10.1039/c3nr06565k,Double anions
mp-390,TiO2,True,False,2.0586,-3.508055451944444,[5.81],,10.1039/c3nr06565k,Double anions
mp-390,TiO2,True,False,2.0586,-3.508055451944444,[2.3],,10.1039/c3nr06724f,Double anions
mp-390,TiO2,True,False,2.0586,-3.508055451944444,[3.01],,10.1039/c3nr06724f,Double anions
mp-390,TiO2,True,False,2.0586,-3.508055451944444,[3.2],,10.1039/c3nr34253k,Double anions
mp-390,TiO2,True,False,2.0586,-3.508055451944444,[3.2],,10.1039/c3ra00030c,Double anions
mp-390,TiO2,True,False,2.0586,-3.508055451944444,[3.32],,10.1039/c3ra00030c,Double anions
mp-390,TiO2,True,False,2.0586,-3.508055451944444,[2.22],,10.1039/c3ra00030c,Double anions
mp-390,TiO2,True,False,2.0586,-3.508055451944444,[3.2],,10.1039/c3ra22626c,Double anions
mp-390,TiO2,True,False,2.0586,-3.508055451944444,[3.2],,10.1039/c3ra23451g,Double anions
mp-390,TiO2,True,False,2.0586,-3.508055451944444,[3.11],,10.1039/c3ra23451g,Double anions
mp-390,TiO2,True,False,2.0586,-3.508055451944444,[3.2],,10.1039/c3ra40518d,Double anions
mp-390,TiO2,True,False,2.0586,-3.508055451944444,[3.0],,10.1039/c3ra40746b,Double anions
mp-390,TiO2,True,False,2.0586,-3.508055451944444,[3.2],,10.1039/c3ra41054d,Double anions
mp-390,TiO2,True,False,2.0586,-3.508055451944444,[3.9],,10.1039/c3ra42055h,Double anions
mp-390,TiO2,True,False,2.0586,-3.508055451944444,[3.0],,10.1039/c3ra42214c,Double anions
mp-390,TiO2,True,False,2.0586,-3.508055451944444,[3.2],,10.1039/c3ra42269k,Double anions
mp-390,TiO2,True,False,2.0586,-3.508055451944444,[3.2],,10.1039/c3ra42768d,Double anions
mp-390,TiO2,True,False,2.0586,-3.508055451944444,[3.2],,10.1039/c3ra43396j,Double anions
mp-390,TiO2,True,False,2.0586,-3.508055451944444,[2.78],,10.1039/c3ra44046j,Double anions
mp-390,TiO2,True,False,2.0586,-3.508055451944444,[3.2],,10.1039/c3ra45474f,Double anions
mp-390,TiO2,True,False,2.0586,-3.508055451944444,[3.2],,10.1039/c3ra45492d,Double anions
mp-390,TiO2,True,False,2.0586,-3.508055451944444,[3.16],,10.1039/c3ra46389c,Double anions
mp-390,TiO2,True,False,2.0586,-3.508055451944444,[2.441],,10.1039/c3ta01011b,Double anions
mp-390,TiO2,True,False,2.0586,-3.508055451944444,[3.0],,10.1039/c3ta01384g,Double anions
mp-390,TiO2,True,False,2.0586,-3.508055451944444,[3.2],,10.1039/c3ta10511c,Double anions
mp-390,TiO2,True,False,2.0586,-3.508055451944444,[2.88],,10.1039/c3ta10511c,Double anions
mp-390,TiO2,True,False,2.0586,-3.508055451944444,[3.2],,10.1039/c3ta10673j,Double anions
mp-390,TiO2,True,False,2.0586,-3.508055451944444,[2.99],,10.1039/c3ta10689f,Double anions
mp-390,TiO2,True,False,2.0586,-3.508055451944444,[3.09],,10.1039/c3ta10689f,Double anions
mp-390,TiO2,True,False,2.0586,-3.508055451944444,[3.2],,10.1039/c3ta11481c,Double anions
mp-390,TiO2,True,False,2.0586,-3.508055451944444,[3.0],,10.1039/c3ta12568h,Double anions
mp-390,TiO2,True,False,2.0586,-3.508055451944444,[2.32],,10.1039/c3ta13248j,Double anions
mp-390,TiO2,True,False,2.0586,-3.508055451944444,[3.0],,10.1039/c3ta13917d,Double anions
mp-390,TiO2,True,False,2.0586,-3.508055451944444,[3.2],,10.1039/c3ta13985a,Double anions
mp-390,TiO2,True,False,2.0586,-3.508055451944444,[3.2],,10.1039/c3ta14052k,Double anions
mp-390,TiO2,True,False,2.0586,-3.508055451944444,[3.2],,10.1039/c3ta14240j,Double anions
mp-390,TiO2,True,False,2.0586,-3.508055451944444,[1.0],,10.1039/c3ta14484d,Double anions
mp-390,TiO2,True,False,2.0586,-3.508055451944444,[3.2],,10.1039/c3ta15007k,Double anions
mp-390,TiO2,True,False,2.0586,-3.508055451944444,[3.21],,10.1039/c3ta15007k,Double anions
mp-390,TiO2,True,False,2.0586,-3.508055451944444,[2.0],,10.1039/c3tb20229a,Double anions
mp-390,TiO2,True,False,2.0586,-3.508055451944444,[3.2],,10.1039/c3tc30370e,Double anions
mp-390,TiO2,True,False,2.0586,-3.508055451944444,[3.0],,10.1039/c4cc01118j,Double anions
mp-390,TiO2,True,False,2.0586,-3.508055451944444,[3.2],,10.1039/c4cc01304b,Double anions
mp-390,TiO2,True,False,2.0586,-3.508055451944444,[3.2],,10.1039/c4cc04421e,Double anions
mp-390,TiO2,True,False,2.0586,-3.508055451944444,[2.94],,10.1039/c4cc09083g,Double anions
mp-390,TiO2,True,False,2.0586,-3.508055451944444,[3.2],,10.1039/c4ce00596a,Double anions
mp-390,TiO2,True,False,2.0586,-3.508055451944444,[3.18],,10.1039/c4ce00596a,Double anions
mp-390,TiO2,True,False,2.0586,-3.508055451944444,[3.2],,10.1039/c4ce01198h,Double anions
mp-390,TiO2,True,False,2.0586,-3.508055451944444,[3.2],,10.1039/c4ce01839g,Double anions
mp-390,TiO2,True,False,2.0586,-3.508055451944444,[3.26],,10.1039/c4cp01077a,Double anions
mp-390,TiO2,True,False,2.0586,-3.508055451944444,[1.92],,10.1039/c4cp01077a,Double anions
mp-390,TiO2,True,False,2.0586,-3.508055451944444,[2.76],,10.1039/c4cp01077a,Double anions
mp-390,TiO2,True,False,2.0586,-3.508055451944444,[2.36],,10.1039/c4cp01077a,Double anions
mp-390,TiO2,True,False,2.0586,-3.508055451944444,[3.2],,10.1039/c4cp01888e,Double anions
mp-390,TiO2,True,False,2.0586,-3.508055451944444,[3.07],,10.1039/c4cp01923g,Double anions
mp-390,TiO2,True,False,2.0586,-3.508055451944444,[3.2],,10.1039/c4cp02197e,Double anions
mp-390,TiO2,True,False,2.0586,-3.508055451944444,[2.856],,10.1039/c4cp02951h,Double anions
mp-390,TiO2,True,False,2.0586,-3.508055451944444,[0.4],,10.1039/c4cp02951h,Double anions
mp-390,TiO2,True,False,2.0586,-3.508055451944444,[1.0],,10.1039/c4cp02951h,Double anions
mp-390,TiO2,True,False,2.0586,-3.508055451944444,[3.2],,10.1039/c4cp02982h,Double anions
mp-390,TiO2,True,False,2.0586,-3.508055451944444,[2.5],,10.1039/c4cp02982h,Double anions
mp-390,TiO2,True,False,2.0586,-3.508055451944444,[3.2],,10.1039/c4cp03073g,Double anions
mp-390,TiO2,True,False,2.0586,-3.508055451944444,[3.0],,10.1039/c4cp03280b,Double anions
mp-390,TiO2,True,False,2.0586,-3.508055451944444,[3.2],,10.1039/c4cp03587a,Double anions
mp-390,TiO2,True,False,2.0586,-3.508055451944444,[3.2],,10.1039/c4cp04209c,Double anions
mp-390,TiO2,True,False,2.0586,-3.508055451944444,[3.0],,10.1039/c4cp05065g,Double anions
mp-390,TiO2,True,False,2.0586,-3.508055451944444,[3.21],,10.1039/c4cp05065g,Double anions
mp-390,TiO2,True,False,2.0586,-3.508055451944444,[3.2],,10.1039/c4cp05164e,Double anions
mp-390,TiO2,True,False,2.0586,-3.508055451944444,[3.14],,10.1039/c4cp05795c,Double anions
mp-390,TiO2,True,False,2.0586,-3.508055451944444,[3.2],,10.1039/c4cs00180j,Double anions
mp-390,TiO2,True,False,2.0586,-3.508055451944444,[2.9],,10.1039/c4cs00469h,Double anions
mp-390,TiO2,True,False,2.0586,-3.508055451944444,[3.0],,10.1039/c4cs00469h,Double anions
mp-390,TiO2,True,False,2.0586,-3.508055451944444,[3.0],,10.1039/c4cs00492b,Double anions
mp-390,TiO2,True,False,2.0586,-3.508055451944444,[3.2],,10.1039/c4cy00974f,Double anions
mp-390,TiO2,True,False,2.0586,-3.508055451944444,[3.2],,10.1039/c4dt00087k,Double anions
mp-390,TiO2,True,False,2.0586,-3.508055451944444,[3.2],,10.1039/c4dt00924j,Double anions
mp-390,TiO2,True,False,2.0586,-3.508055451944444,[2.06],,10.1039/c4dt02150a,Double anions
mp-390,TiO2,True,False,2.0586,-3.508055451944444,[3.2],,10.1039/c4dt02576h,Double anions
mp-390,TiO2,True,False,2.0586,-3.508055451944444,[3.2],,10.1039/c4dt02984d,Double anions
mp-390,TiO2,True,False,2.0586,-3.508055451944444,[1.54],,10.1039/c4dt02984d,Double anions
mp-390,TiO2,True,False,2.0586,-3.508055451944444,[3.2],,10.1039/c4dt03254c,Double anions
mp-390,TiO2,True,False,2.0586,-3.508055451944444,[3.2],,10.1039/c4dt03657c,Double anions
mp-390,TiO2,True,False,2.0586,-3.508055451944444,[3.7],,10.1039/c4ee03802a,Double anions
mp-390,TiO2,True,False,2.0586,-3.508055451944444,[3.2],,10.1039/c4nj00024b,Double anions
mp-390,TiO2,True,False,2.0586,-3.508055451944444,[3.16],,10.1039/c4nj00179f,Double anions
mp-390,TiO2,True,False,2.0586,-3.508055451944444,[3.4],,10.1039/c4nj00610k,Double anions
mp-390,TiO2,True,False,2.0586,-3.508055451944444,[3.2],,10.1039/c4nj00610k,Double anions
mp-390,TiO2,True,False,2.0586,-3.508055451944444,[3.2],,10.1039/c4nj01002g,Double anions
mp-390,TiO2,True,False,2.0586,-3.508055451944444,[3.19],,10.1039/c4nj01002g,Double anions
mp-390,TiO2,True,False,2.0586,-3.508055451944444,[3.2],,10.1039/c4nj01048e,Double anions
mp-390,TiO2,True,False,2.0586,-3.508055451944444,[3.2],,10.1039/c4nj01433b,Double anions
mp-390,TiO2,True,False,2.0586,-3.508055451944444,[1.36],,10.1039/c4nj02374a,Double anions
mp-390,TiO2,True,False,2.0586,-3.508055451944444,[3.2],,10.1039/c4nr00972j,Double anions
mp-390,TiO2,True,False,2.0586,-3.508055451944444,[3.2],,10.1039/c4nr01836b,Double anions
mp-390,TiO2,True,False,2.0586,-3.508055451944444,[1.54],,10.1039/c4nr02677b,Double anions
mp-390,TiO2,True,False,2.0586,-3.508055451944444,[3.2],,10.1039/c4nr04244a,Double anions
mp-390,TiO2,True,False,2.0586,-3.508055451944444,[2.78],,10.1039/c4nr05963h,Double anions
mp-390,TiO2,True,False,2.0586,-3.508055451944444,[3.2],,10.1039/c4nr06435f,Double anions
mp-390,TiO2,True,False,2.0586,-3.508055451944444,[3.2],,10.1039/c4nr06929c,Double anions
mp-390,TiO2,True,False,2.0586,-3.508055451944444,[3.0],,10.1039/c4nr07224c,Double anions
mp-390,TiO2,True,False,2.0586,-3.508055451944444,[3.2],,10.1039/c4qi00027g,Double anions
mp-390,TiO2,True,False,2.0586,-3.508055451944444,[3.2],,10.1039/c4ra00702f,Double anions
mp-390,TiO2,True,False,2.0586,-3.508055451944444,[1.0],,10.1039/c4ra00702f,Double anions
mp-390,TiO2,True,False,2.0586,-3.508055451944444,[3.2],,10.1039/c4ra01553c,Double anions
mp-390,TiO2,True,False,2.0586,-3.508055451944444,[3.07],,10.1039/c4ra01769b,Double anions
mp-390,TiO2,True,False,2.0586,-3.508055451944444,[2.95],,10.1039/c4ra01769b,Double anions
mp-390,TiO2,True,False,2.0586,-3.508055451944444,[3.1],900,10.1039/c4ra01850h,Double anions
mp-390,TiO2,True,False,2.0586,-3.508055451944444,[1.94],,10.1039/c4ra03291h,Double anions
mp-390,TiO2,True,False,2.0586,-3.508055451944444,[2.99],,10.1039/c4ra03418j,Double anions
mp-390,TiO2,True,False,2.0586,-3.508055451944444,[3.0],,10.1039/c4ra03949a,Double anions
mp-390,TiO2,True,False,2.0586,-3.508055451944444,[3.16],250,10.1039/c4ra04768k,Double anions
mp-390,TiO2,True,False,2.0586,-3.508055451944444,[3.03],,10.1039/c4ra05994h,Double anions
mp-390,TiO2,True,False,2.0586,-3.508055451944444,[3.2],,10.1039/c4ra06488g,Double anions
mp-390,TiO2,True,False,2.0586,-3.508055451944444,[3.2],,10.1039/c4ra06658h,Double anions
mp-390,TiO2,True,False,2.0586,-3.508055451944444,[3.2],,10.1039/c4ra06852a,Double anions
mp-390,TiO2,True,False,2.0586,-3.508055451944444,[3.2],,10.1039/c4ra07049f,Double anions
mp-390,TiO2,True,False,2.0586,-3.508055451944444,[3.2],,10.1039/c4ra07938h,Double anions
mp-390,TiO2,True,False,2.0586,-3.508055451944444,[3.14],,10.1039/c4ra08153f,Double anions
mp-390,TiO2,True,False,2.0586,-3.508055451944444,[3.2],,10.1039/c4ra08759c,Double anions
mp-390,TiO2,True,False,2.0586,-3.508055451944444,[3.2],,10.1039/c4ra08858a,Double anions
mp-390,TiO2,True,False,2.0586,-3.508055451944444,[3.07],,10.1039/c4ra08899a,Double anions
mp-390,TiO2,True,False,2.0586,-3.508055451944444,[3.0],,10.1039/c4ra08931f,Double anions
mp-390,TiO2,True,False,2.0586,-3.508055451944444,[3.8],,10.1039/c4ra09265a,Double anions
mp-390,TiO2,True,False,2.0586,-3.508055451944444,[2.55],,10.1039/c4ra09265a,Double anions
mp-390,TiO2,True,False,2.0586,-3.508055451944444,[2.68],,10.1039/c4ra09265a,Double anions
mp-390,TiO2,True,False,2.0586,-3.508055451944444,[1.39],,10.1039/c4ra09546d,Double anions
mp-390,TiO2,True,False,2.0586,-3.508055451944444,[3.0],,10.1039/c4ra10192h,Double anions
mp-390,TiO2,True,False,2.0586,-3.508055451944444,[3.2],,10.1039/c4ra10227d,Double anions
mp-390,TiO2,True,False,2.0586,-3.508055451944444,[3.68],,10.1039/c4ra10572a,Double anions
mp-390,TiO2,True,False,2.0586,-3.508055451944444,[3.51],,10.1039/c4ra10572a,Double anions
mp-390,TiO2,True,False,2.0586,-3.508055451944444,[3.2],,10.1039/c4ra10670a,Double anions
mp-390,TiO2,True,False,2.0586,-3.508055451944444,[3.2],,10.1039/c4ra11417e,Double anions
mp-390,TiO2,True,False,2.0586,-3.508055451944444,[3.2],,10.1039/c4ra12491j,Double anions
mp-390,TiO2,True,False,2.0586,-3.508055451944444,[3.3],,10.1039/c4ra12516a,Double anions
mp-390,TiO2,True,False,2.0586,-3.508055451944444,[3.2],,10.1039/c4ra12998a,Double anions
mp-390,TiO2,True,False,2.0586,-3.508055451944444,[3.2],,10.1039/c4ra13083a,Double anions
mp-390,TiO2,True,False,2.0586,-3.508055451944444,[3.2],,10.1039/c4ra13254h,Double anions
mp-390,TiO2,True,False,2.0586,-3.508055451944444,[3.2],,10.1039/c4ra14039g,Double anions
mp-390,TiO2,True,False,2.0586,-3.508055451944444,[3.2],,10.1039/c4ra14612c,Double anions
mp-390,TiO2,True,False,2.0586,-3.508055451944444,[2.32],,10.1039/c4ra14612c,Double anions
mp-390,TiO2,True,False,2.0586,-3.508055451944444,[3.2],,10.1039/c4ra15605f,Double anions
mp-390,TiO2,True,False,2.0586,-3.508055451944444,[2.7],,10.1039/c4ra15715j,Double anions
mp-390,TiO2,True,False,2.0586,-3.508055451944444,[3.2],,10.1039/c4ra15821k,Double anions
mp-390,TiO2,True,False,2.0586,-3.508055451944444,[3.2],,10.1039/c4ra16597g,Double anions
mp-390,TiO2,True,False,2.0586,-3.508055451944444,[3.2],,10.1039/c4ra17002d,Double anions
mp-390,TiO2,True,False,2.0586,-3.508055451944444,[3.2],,10.1039/c4ta00083h,Double anions
mp-390,TiO2,True,False,2.0586,-3.508055451944444,[3.3],,10.1039/c4ta00354c,Double anions
mp-390,TiO2,True,False,2.0586,-3.508055451944444,[2.9],,10.1039/c4ta00354c,Double anions
mp-390,TiO2,True,False,2.0586,-3.508055451944444,[3.2],,10.1039/c4ta00902a,Double anions
mp-390,TiO2,True,False,2.0586,-3.508055451944444,[4.16],,10.1039/c4ta01140f,Double anions
mp-390,TiO2,True,False,2.0586,-3.508055451944444,[3.2],,10.1039/c4ta01190b,Double anions
mp-390,TiO2,True,False,2.0586,-3.508055451944444,[3.2],,10.1039/c4ta01581a,Double anions
mp-390,TiO2,True,False,2.0586,-3.508055451944444,[1.12],,10.1039/c4ta01677g,Double anions
mp-390,TiO2,True,False,2.0586,-3.508055451944444,[0.16],,10.1039/c4ta02202e,Double anions
mp-390,TiO2,True,False,2.0586,-3.508055451944444,[3.2],,10.1039/c4ta02211d,Double anions
mp-390,TiO2,True,False,2.0586,-3.508055451944444,[3.2],,10.1039/c4ta04313h,Double anions
mp-390,TiO2,True,False,2.0586,-3.508055451944444,[3.2],,10.1039/c4ta04461d,Double anions
mp-390,TiO2,True,False,2.0586,-3.508055451944444,[1.0],,10.1039/c4ta04461d,Double anions
mp-390,TiO2,True,False,2.0586,-3.508055451944444,[3.1],,10.1039/c4ta06484d,Double anions
mp-390,TiO2,True,False,2.0586,-3.508055451944444,[3.26],,10.1039/c4ta06606e,Double anions
mp-390,TiO2,True,False,2.0586,-3.508055451944444,[3.2],,10.1039/c4tc01030b,Double anions
mp-390,TiO2,True,False,2.0586,-3.508055451944444,[1.39],,10.1039/c4tc01195c,Double anions
mp-390,TiO2,True,False,2.0586,-3.508055451944444,[3.2],,10.1039/c5an00873e,Double anions
mp-390,TiO2,True,False,2.0586,-3.508055451944444,[2.3],,10.1039/c5an00873e,Double anions
mp-390,TiO2,True,False,2.0586,-3.508055451944444,[3.2],,10.1039/c5ay01610j,Double anions
mp-390,TiO2,True,False,2.0586,-3.508055451944444,[3.2],,10.1039/c5ay02290h,Double anions
mp-390,TiO2,True,False,2.0586,-3.508055451944444,[3.2],,10.1039/c5cc05301c,Double anions
mp-390,TiO2,True,False,2.0586,-3.508055451944444,[3.2],,10.1039/c5ce00184f,Double anions
mp-390,TiO2,True,False,2.0586,-3.508055451944444,[3.2],,10.1039/c5ce00619h,Double anions
mp-390,TiO2,True,False,2.0586,-3.508055451944444,[3.0],,10.1039/c5ce01343g,Double anions
mp-390,TiO2,True,False,2.0586,-3.508055451944444,[3.2],,10.1039/c5cp01128k,Double anions
mp-390,TiO2,True,False,2.0586,-3.508055451944444,[3.0],,10.1039/c5cp01199j,Double anions
mp-390,TiO2,True,False,2.0586,-3.508055451944444,[2.06],,10.1039/c5cp02110c,Double anions
mp-390,TiO2,True,False,2.0586,-3.508055451944444,[3.196],,10.1039/c5cp02473k,Double anions
mp-390,TiO2,True,False,2.0586,-3.508055451944444,[3.13],,10.1039/c5cp02473k,Double anions
mp-390,TiO2,True,False,2.0586,-3.508055451944444,[2.56],,10.1039/c5cp03005f,Double anions
mp-390,TiO2,True,False,2.0586,-3.508055451944444,[3.2],,10.1039/c5cp03576g,Double anions
mp-390,TiO2,True,False,2.0586,-3.508055451944444,[3.2],,10.1039/c5cp04374c,Double anions
mp-390,TiO2,True,False,2.0586,-3.508055451944444,[2.98],,10.1039/c5cp05018a,Double anions
mp-390,TiO2,True,False,2.0586,-3.508055451944444,[3.32],,10.1039/c5cp06555k,Double anions
mp-390,TiO2,True,False,2.0586,-3.508055451944444,[2.0],,10.1039/c5cp06681f,Double anions
mp-390,TiO2,True,False,2.0586,-3.508055451944444,[3.6],,10.1039/c5cp06707c,Double anions
mp-390,TiO2,True,False,2.0586,-3.508055451944444,[3.05],,10.1039/c5cp06835e,Double anions
mp-390,TiO2,True,False,2.0586,-3.508055451944444,[3.2],300,10.1039/c5cp07109g,Double anions
mp-390,TiO2,True,False,2.0586,-3.508055451944444,[3.2],,10.1039/c5cp07109g,Double anions
mp-390,TiO2,True,False,2.0586,-3.508055451944444,[3.1],,10.1039/c5cp07320k,Double anions
mp-390,TiO2,True,False,2.0586,-3.508055451944444,[3.21],,10.1039/c5cy01820j,Double anions
mp-390,TiO2,True,False,2.0586,-3.508055451944444,[3.2],,10.1039/c5dt00287g,Double anions
mp-390,TiO2,True,False,2.0586,-3.508055451944444,[1.82],,10.1039/c5dt01141h,Double anions
mp-390,TiO2,True,False,2.0586,-3.508055451944444,[3.2],,10.1039/c5dt01961c,Double anions
mp-390,TiO2,True,False,2.0586,-3.508055451944444,[3.13],,10.1039/c5dt02983j,Double anions
mp-390,TiO2,True,False,2.0586,-3.508055451944444,[3.25],,10.1039/c5dt03370e,Double anions
mp-390,TiO2,True,False,2.0586,-3.508055451944444,[3.2],,10.1039/c5dt03408f,Double anions
mp-390,TiO2,True,False,2.0586,-3.508055451944444,[3.2],,10.1039/c5dt03617h,Double anions
mp-390,TiO2,True,False,2.0586,-3.508055451944444,[3.0],,10.1039/c5ee01615k,Double anions
mp-390,TiO2,True,False,2.0586,-3.508055451944444,[3.2],,10.1039/c5ee02284c,Double anions
mp-390,TiO2,True,False,2.0586,-3.508055451944444,[3.2],,10.1039/c5ee02484f,Double anions
mp-390,TiO2,True,False,2.0586,-3.508055451944444,[3.39],,10.1039/c5fd00126a,Double anions
mp-390,TiO2,True,False,2.0586,-3.508055451944444,[3.2],,10.1039/c5nj00239g,Double anions
mp-390,TiO2,True,False,2.0586,-3.508055451944444,[3.2],,10.1039/c5nj00340g,Double anions
mp-390,TiO2,True,False,2.0586,-3.508055451944444,[2.08],,10.1039/c5nj00340g,Double anions
mp-390,TiO2,True,False,2.0586,-3.508055451944444,[2.9],,10.1039/c5nj00450k,Double anions
mp-390,TiO2,True,False,2.0586,-3.508055451944444,[3.2],,10.1039/c5nj00450k,Double anions
mp-390,TiO2,True,False,2.0586,-3.508055451944444,[3.12],,10.1039/c5nj00450k,Double anions
mp-390,TiO2,True,False,2.0586,-3.508055451944444,[3.2],,10.1039/c5nj02204e,Double anions
mp-390,TiO2,True,False,2.0586,-3.508055451944444,[3.26],,10.1039/c5nj02270c,Double anions
mp-390,TiO2,True,False,2.0586,-3.508055451944444,[3.1],,10.1039/c5nj02861b,Double anions
mp-390,TiO2,True,False,2.0586,-3.508055451944444,[3.2],,10.1039/c5nj02894a,Double anions
mp-390,TiO2,True,False,2.0586,-3.508055451944444,[3.21],,10.1039/c5nr00504c,Double anions
mp-390,TiO2,True,False,2.0586,-3.508055451944444,[2.9],,10.1039/c5nr02974k,Double anions
mp-390,TiO2,True,False,2.0586,-3.508055451944444,[2.1],,10.1039/c5nr02974k,Double anions
mp-390,TiO2,True,False,2.0586,-3.508055451944444,[3.2],,10.1039/c5nr03659c,Double anions
mp-390,TiO2,True,False,2.0586,-3.508055451944444,[3.23],,10.1039/c5nr03659c,Double anions
mp-390,TiO2,True,False,2.0586,-3.508055451944444,[3.2],,10.1039/c5nr04562b,Double anions
mp-390,TiO2,True,False,2.0586,-3.508055451944444,[3.2],,10.1039/c5nr05207f,Double anions