mpids,formula,is_stable,theoretical,band_gap,formation_energy_per_atom,Value,Temperature_raw_value,DOI,compound_type
mp-20194,CeO2,True,False,1.8647,-3.9271761966666654,[3.0],,10.1007/s12039-018-1588-z,Double anions
mp-20194,CeO2,True,False,1.8647,-3.9271761966666654,[3.19],,10.1007/s13391-018-0049-7,Double anions
mp-20194,CeO2,True,False,1.8647,-3.9271761966666654,[2.87],,10.1007/s13391-018-0049-7,Double anions
mp-20194,CeO2,True,False,1.8647,-3.9271761966666654,[3.0],,10.1038/s41598-019-44543-2,Double anions
mp-20194,CeO2,True,False,1.8647,-3.9271761966666654,[2.06],,10.1038/s42004-019-0216-2,Double anions
mp-20194,CeO2,True,False,1.8647,-3.9271761966666654,[3.19],,10.1134/S0036024418130046,Double anions
mp-20194,CeO2,True,False,1.8647,-3.9271761966666654,[3.052],220,10.1134/S0036024419010059,Double anions
mp-20194,CeO2,True,False,1.8647,-3.9271761966666654,[3.19],,10.1134/S0036024419010059,Double anions
mp-20194,CeO2,True,False,1.8647,-3.9271761966666654,[2.94],,10.1007/s10562-019-03014-z,Double anions
mp-20194,CeO2,True,False,1.8647,-3.9271761966666654,[3.19],,10.1007/s10562-019-03014-z,Double anions
mp-20194,CeO2,True,False,1.8647,-3.9271761966666654,[3.38],,10.1007/s10832-016-0018-1,Double anions
mp-20194,CeO2,True,False,1.8647,-3.9271761966666654,[3.03],,10.1007/s10832-016-0018-1,Double anions
mp-20194,CeO2,True,False,1.8647,-3.9271761966666654,[0.05],,10.1007/s10832-016-0018-1,Double anions
mp-20194,CeO2,True,False,1.8647,-3.9271761966666654,[3.2],,10.1007/s10854-014-2559-x,Double anions
mp-20194,CeO2,True,False,1.8647,-3.9271761966666654,[2.73],,10.1007/s10854-014-2559-x,Double anions
mp-20194,CeO2,True,False,1.8647,-3.9271761966666654,[2.88],,10.1007/s10854-014-2559-x,Double anions
mp-20194,CeO2,True,False,1.8647,-3.9271761966666654,[3.7],,10.1007/s10854-015-2675-2,Double anions
mp-20194,CeO2,True,False,1.8647,-3.9271761966666654,[3.2],,10.1007/s10854-016-4636-9,Double anions
mp-20194,CeO2,True,False,1.8647,-3.9271761966666654,[3.2],,10.1007/s10854-018-8899-1,Double anions
mp-20194,CeO2,True,False,1.8647,-3.9271761966666654,[3.39],,10.1007/s10854-019-01429-3,Double anions
mp-20194,CeO2,True,False,1.8647,-3.9271761966666654,[3.74],,10.1007/s10854-020-03416-5,Double anions
mp-20194,CeO2,True,False,1.8647,-3.9271761966666654,[3.01],,10.1007/s11164-017-3244-5,Double anions
mp-20194,CeO2,True,False,1.8647,-3.9271761966666654,[3.2],,10.1007/s11164-017-3244-5,Double anions
mp-20194,CeO2,True,False,1.8647,-3.9271761966666654,[2.45],,10.1007/s11164-017-3244-5,Double anions
mp-20194,CeO2,True,False,1.8647,-3.9271761966666654,[3.1],,10.1007/s11164-018-3419-8,Double anions
mp-20194,CeO2,True,False,1.8647,-3.9271761966666654,[2.75],,10.1007/s11164-018-3419-8,Double anions
mp-20194,CeO2,True,False,1.8647,-3.9271761966666654,[3.16],,10.1007/s11244-016-0698-4,Double anions
mp-20194,CeO2,True,False,1.8647,-3.9271761966666654,[3.2],,10.1007/s11696-018-0395-9,Double anions
mp-20194,CeO2,True,False,1.8647,-3.9271761966666654,[3.45],,10.1007/s12034-015-0861-8,Double anions
mp-20194,CeO2,True,False,1.8647,-3.9271761966666654,[2.65],,10.1007/s12648-016-0861-6,Double anions
mp-20194,CeO2,True,False,1.8647,-3.9271761966666654,[2.36],,10.1007/s12648-016-0861-6,Double anions
mp-20194,CeO2,True,False,1.8647,-3.9271761966666654,[2.0],,10.1007/s13204-018-0751-7,Double anions
mp-20194,CeO2,True,False,1.8647,-3.9271761966666654,[1.95],,10.1007/s13762-020-02971-y,Double anions
mp-20194,CeO2,True,False,1.8647,-3.9271761966666654,[2.92],,10.1007/s40090-020-00214-0,Double anions
mp-20194,CeO2,True,False,1.8647,-3.9271761966666654,[3.2],,10.1038/ncomms7511,Double anions
mp-20194,CeO2,True,False,1.8647,-3.9271761966666654,[3.4],,10.1038/s41598-017-06139-6,Double anions
mp-20194,CeO2,True,False,1.8647,-3.9271761966666654,[3.16],,10.1038/s41598-017-06139-6,Double anions
mp-20194,CeO2,True,False,1.8647,-3.9271761966666654,[3.2],,10.1038/srep31345,Double anions
mp-20194,CeO2,True,False,1.8647,-3.9271761966666654,[4.24],,10.1038/srep31345,Double anions
mp-20194,CeO2,True,False,1.8647,-3.9271761966666654,[3.19],,10.1038/srep46372,Double anions
mp-20194,CeO2,True,False,1.8647,-3.9271761966666654,[5.09],,10.1038/srep46372,Double anions
mp-20194,CeO2,True,False,1.8647,-3.9271761966666654,[2.9],,10.1007/s10562-008-9423-7,Double anions
mp-20194,CeO2,True,False,1.8647,-3.9271761966666654,[4.6],,10.1007/s10825-017-0956-0,Double anions
mp-20194,CeO2,True,False,1.8647,-3.9271761966666654,[2.77],160,10.1007/s10854-016-5379-3,Double anions
mp-20194,CeO2,True,False,1.8647,-3.9271761966666654,[3.2],,10.1007/s10854-017-7082-4,Double anions
mp-20194,CeO2,True,False,1.8647,-3.9271761966666654,[4.0],,10.1007/s10854-018-9130-0,Double anions
mp-20194,CeO2,True,False,1.8647,-3.9271761966666654,[3.2],,10.1007/s10854-018-9498-x,Double anions
mp-20194,CeO2,True,False,1.8647,-3.9271761966666654,[2.6],,10.1007/s10854-019-00746-x,Double anions
mp-20194,CeO2,True,False,1.8647,-3.9271761966666654,[3.94],,10.1007/s10854-019-00746-x,Double anions
mp-20194,CeO2,True,False,1.8647,-3.9271761966666654,[3.2],,10.1007/s10854-019-00913-0,Double anions
mp-20194,CeO2,True,False,1.8647,-3.9271761966666654,[3.239],,10.1007/s10854-019-01521-8,Double anions
mp-20194,CeO2,True,False,1.8647,-3.9271761966666654,[3.34],,10.1007/s10854-019-01521-8,Double anions
mp-20194,CeO2,True,False,1.8647,-3.9271761966666654,[3.19],,10.1007/s10854-019-02113-2,Double anions
mp-20194,CeO2,True,False,1.8647,-3.9271761966666654,[2.92],,10.1007/s10854-020-04845-y,Double anions
mp-20194,CeO2,True,False,1.8647,-3.9271761966666654,[3.2],,10.1007/s11164-017-3037-x,Double anions
mp-20194,CeO2,True,False,1.8647,-3.9271761966666654,[3.6],,10.1007/s11665-013-0740-7,Double anions
mp-20194,CeO2,True,False,1.8647,-3.9271761966666654,[3.59],,10.1007/s12010-016-2121-9,Double anions
mp-20194,CeO2,True,False,1.8647,-3.9271761966666654,[0.4],,10.1007/s12010-016-2121-9,Double anions
mp-20194,CeO2,True,False,1.8647,-3.9271761966666654,[3.11],,10.1007/s13204-015-0495-6,Double anions
mp-20194,CeO2,True,False,1.8647,-3.9271761966666654,[2.91],,10.1007/s40195-016-0387-0,Double anions
mp-20194,CeO2,True,False,1.8647,-3.9271761966666654,[2.84],,10.1007/s40195-016-0387-0,Double anions
mp-20194,CeO2,True,False,1.8647,-3.9271761966666654,[3.19],,10.1038/s41598-017-02692-2,Double anions
mp-20194,CeO2,True,False,1.8647,-3.9271761966666654,[1.61],,10.1038/s41598-017-05046-0,Double anions
mp-20194,CeO2,True,False,1.8647,-3.9271761966666654,[2.8],,10.1038/s41598-017-05046-0,Double anions
mp-20194,CeO2,True,False,1.8647,-3.9271761966666654,[3.46],,10.1038/s41598-017-11074-7,Double anions
mp-20194,CeO2,True,False,1.8647,-3.9271761966666654,[5.56],,10.1038/s41598-017-11074-7,Double anions
mp-20194,CeO2,True,False,1.8647,-3.9271761966666654,[3.0],,10.1038/srep05757,Double anions
mp-20194,CeO2,True,False,1.8647,-3.9271761966666654,[2.58],,10.1007/s10853-008-2750-7,Double anions
mp-20194,CeO2,True,False,1.8647,-3.9271761966666654,[3.4],,10.1007/s10854-016-5636-5,Double anions
mp-20194,CeO2,True,False,1.8647,-3.9271761966666654,[3.06],300,10.1007/s10854-016-6295-2,Double anions
mp-20194,CeO2,True,False,1.8647,-3.9271761966666654,[3.11],,10.1007/s10854-016-6295-2,Double anions
mp-20194,CeO2,True,False,1.8647,-3.9271761966666654,[3.19],,10.1007/s10854-016-6295-2,Double anions
mp-20194,CeO2,True,False,1.8647,-3.9271761966666654,[2.9],,10.1007/s10854-016-6295-2,Double anions
mp-20194,CeO2,True,False,1.8647,-3.9271761966666654,[3.06],,10.1007/s10854-016-6295-2,Double anions
mp-20194,CeO2,True,False,1.8647,-3.9271761966666654,[5.5],,10.1007/s10854-017-6886-6,Double anions
mp-20194,CeO2,True,False,1.8647,-3.9271761966666654,[3.2],,10.1007/s10854-017-7113-1,Double anions
mp-20194,CeO2,True,False,1.8647,-3.9271761966666654,[3.2],,10.1007/s10854-018-0306-4,Double anions
mp-20194,CeO2,True,False,1.8647,-3.9271761966666654,[2.53],,10.1007/s10854-018-0325-1,Double anions
mp-20194,CeO2,True,False,1.8647,-3.9271761966666654,[3.25],,10.1007/s10854-018-8698-8,Double anions
mp-20194,CeO2,True,False,1.8647,-3.9271761966666654,[3.2],,10.1007/s10854-018-9809-2,Double anions
mp-20194,CeO2,True,False,1.8647,-3.9271761966666654,[5.5],,10.1007/s10854-018-9809-2,Double anions
mp-20194,CeO2,True,False,1.8647,-3.9271761966666654,[3.1],,10.1007/s10876-020-01795-7,Double anions
mp-20194,CeO2,True,False,1.8647,-3.9271761966666654,[3.2],,10.1007/s10971-016-4028-x,Double anions
mp-20194,CeO2,True,False,1.8647,-3.9271761966666654,[3.48],,10.1007/s10971-016-4028-x,Double anions
mp-20194,CeO2,True,False,1.8647,-3.9271761966666654,[3.44],,10.1007/s10971-016-4028-x,Double anions
mp-20194,CeO2,True,False,1.8647,-3.9271761966666654,[3.6],,10.1007/s10971-016-4286-7,Double anions
mp-20194,CeO2,True,False,1.8647,-3.9271761966666654,[3.2],,10.1007/s11051-014-2641-6,Double anions
mp-20194,CeO2,True,False,1.8647,-3.9271761966666654,[3.51],,10.1007/s12034-019-1862-9,Double anions
mp-20194,CeO2,True,False,1.8647,-3.9271761966666654,[2.1],,10.1007/s40820-019-0354-1,Double anions
mp-20194,CeO2,True,False,1.8647,-3.9271761966666654,[2.92],,10.1038/s41598-019-46544-7,Double anions
mp-20194,CeO2,True,False,1.8647,-3.9271761966666654,[3.18],,10.1038/srep38064,Double anions
mp-20194,CeO2,True,False,1.8647,-3.9271761966666654,[3.35],,10.1007/s10562-013-1079-2,Double anions
mp-20194,CeO2,True,False,1.8647,-3.9271761966666654,[3.2],,10.1007/s10854-016-5439-8,Double anions
mp-20194,CeO2,True,False,1.8647,-3.9271761966666654,[3.18],,10.1007/s10854-016-6145-2,Double anions
mp-20194,CeO2,True,False,1.8647,-3.9271761966666654,[3.18],450,10.1007/s10854-016-6145-2,Double anions
mp-20194,CeO2,True,False,1.8647,-3.9271761966666654,[6.0],,10.1007/s10854-017-7072-6,Double anions
mp-20194,CeO2,True,False,1.8647,-3.9271761966666654,[3.33],,10.1007/s10854-018-8654-7,Double anions
mp-20194,CeO2,True,False,1.8647,-3.9271761966666654,[2.6],,10.1007/s10854-018-9445-x,Double anions
mp-20194,CeO2,True,False,1.8647,-3.9271761966666654,[2.8],,10.1007/s10854-018-9445-x,Double anions
mp-20194,CeO2,True,False,1.8647,-3.9271761966666654,[3.19],,10.1007/s10876-020-01925-1,Double anions
mp-20194,CeO2,True,False,1.8647,-3.9271761966666654,[2.52],,10.1007/s10876-020-01925-1,Double anions
mp-20194,CeO2,True,False,1.8647,-3.9271761966666654,[2.98],,10.1007/s10904-019-01312-y,Double anions
mp-20194,CeO2,True,False,1.8647,-3.9271761966666654,[5.57],,10.1007/s10904-019-01312-y,Double anions
mp-20194,CeO2,True,False,1.8647,-3.9271761966666654,[2.83],,10.1007/s10948-020-05658-0,Double anions
mp-20194,CeO2,True,False,1.8647,-3.9271761966666654,[3.2],,10.1007/s10971-014-3350-4,Double anions
mp-20194,CeO2,True,False,1.8647,-3.9271761966666654,[3.2],,10.1007/s10971-020-05387-9,Double anions
mp-20194,CeO2,True,False,1.8647,-3.9271761966666654,[2.7],,10.1007/s11144-019-01564-2,Double anions
mp-20194,CeO2,True,False,1.8647,-3.9271761966666654,[4.9],,10.1007/s11164-017-3067-4,Double anions
mp-20194,CeO2,True,False,1.8647,-3.9271761966666654,[3.59],,10.1007/s11164-020-04115-w,Double anions
mp-20194,CeO2,True,False,1.8647,-3.9271761966666654,[3.49],,10.1007/s11164-020-04115-w,Double anions
mp-20194,CeO2,True,False,1.8647,-3.9271761966666654,[4.1],,10.1007/s11356-017-0902-5,Double anions
mp-20194,CeO2,True,False,1.8647,-3.9271761966666654,[2.97],,10.1007/s11356-017-0902-5,Double anions
mp-20194,CeO2,True,False,1.8647,-3.9271761966666654,[2.72],,10.1007/s12209-020-00271-7,Double anions
mp-20194,CeO2,True,False,1.8647,-3.9271761966666654,[3.8],,10.1007/s12596-015-0265-6,Double anions
mp-20194,CeO2,True,False,1.8647,-3.9271761966666654,[3.19],,10.1007/s13204-012-0131-7,Double anions
mp-20194,CeO2,True,False,1.8647,-3.9271761966666654,[3.77],,10.1007/s13204-012-0131-7,Double anions
mp-20194,CeO2,True,False,1.8647,-3.9271761966666654,[3.5],,10.1007/s40089-015-0143-x,Double anions
mp-20194,CeO2,True,False,1.8647,-3.9271761966666654,[2.92],,10.1007/s00339-019-2625-6,Double anions
mp-20194,CeO2,True,False,1.8647,-3.9271761966666654,[2.96],,10.1007/s00339-019-2625-6,Double anions
mp-20194,CeO2,True,False,1.8647,-3.9271761966666654,[3.09],,10.1007/s00604-020-04403-7,Double anions
mp-20194,CeO2,True,False,1.8647,-3.9271761966666654,[3.42],,10.1007/s10853-009-3301-6,Double anions
mp-20194,CeO2,True,False,1.8647,-3.9271761966666654,[3.19],,10.1007/s10854-016-4352-5,Double anions
mp-20194,CeO2,True,False,1.8647,-3.9271761966666654,[3.0],,10.1007/s10854-016-4352-5,Double anions
mp-20194,CeO2,True,False,1.8647,-3.9271761966666654,[3.0],,10.1007/s10854-016-5117-x,Double anions
mp-20194,CeO2,True,False,1.8647,-3.9271761966666654,[3.0],,10.1007/s10854-016-5371-y,Double anions
mp-20194,CeO2,True,False,1.8647,-3.9271761966666654,[2.83],,10.1007/s10854-016-5829-y,Double anions
mp-20194,CeO2,True,False,1.8647,-3.9271761966666654,[3.2],,10.1007/s10854-017-7274-y,Double anions
mp-20194,CeO2,True,False,1.8647,-3.9271761966666654,[5.5],,10.1007/s10854-017-8306-3,Double anions
mp-20194,CeO2,True,False,1.8647,-3.9271761966666654,[3.0],,10.1007/s10854-017-8306-3,Double anions
mp-20194,CeO2,True,False,1.8647,-3.9271761966666654,[0.03],,10.1007/s10854-018-9060-x,Double anions
mp-20194,CeO2,True,False,1.8647,-3.9271761966666654,[2.48],,10.1007/s10854-018-9154-5,Double anions
mp-20194,CeO2,True,False,1.8647,-3.9271761966666654,[2.95],,10.1007/s10854-018-9154-5,Double anions
mp-20194,CeO2,True,False,1.8647,-3.9271761966666654,[2.88],,10.1007/s10854-018-9154-5,Double anions
mp-20194,CeO2,True,False,1.8647,-3.9271761966666654,[2.8],,10.1007/s10854-018-9154-5,Double anions
mp-20194,CeO2,True,False,1.8647,-3.9271761966666654,[2.5],,10.1007/s10854-018-9154-5,Double anions
mp-20194,CeO2,True,False,1.8647,-3.9271761966666654,[2.83],,10.1007/s10876-017-1292-z,Double anions
mp-20194,CeO2,True,False,1.8647,-3.9271761966666654,[3.1],,10.1007/s10876-017-1292-z,Double anions
mp-20194,CeO2,True,False,1.8647,-3.9271761966666654,[3.24],,10.1007/s10904-020-01822-0,Double anions
mp-20194,CeO2,True,False,1.8647,-3.9271761966666654,[3.47],,10.1007/s10971-013-3132-4,Double anions
mp-20194,CeO2,True,False,1.8647,-3.9271761966666654,[3.0],,10.1007/s10971-013-3132-4,Double anions
mp-20194,CeO2,True,False,1.8647,-3.9271761966666654,[3.42],,10.1007/s11082-019-2029-z,Double anions
mp-20194,CeO2,True,False,1.8647,-3.9271761966666654,[3.19],,10.1007/s11082-019-2029-z,Double anions
mp-20194,CeO2,True,False,1.8647,-3.9271761966666654,[3.02],,10.1007/s11164-018-3257-8,Double anions
mp-20194,CeO2,True,False,1.8647,-3.9271761966666654,[3.2],,10.1007/s11164-019-03912-2,Double anions
mp-20194,CeO2,True,False,1.8647,-3.9271761966666654,[3.401],,10.1007/s11356-020-11153-9,Double anions
mp-20194,CeO2,True,False,1.8647,-3.9271761966666654,[3.3],,10.1007/s13204-020-01296-z,Double anions
mp-20194,CeO2,True,False,1.8647,-3.9271761966666654,[3.45],,10.1007/s42452-018-0103-y,Double anions
mp-20194,CeO2,True,False,1.8647,-3.9271761966666654,[2.53],,10.1038/srep15415,Double anions
mp-20194,CeO2,True,False,1.8647,-3.9271761966666654,[2.92],,10.1186/s11671-018-2504-7,Double anions
mp-20194,CeO2,True,False,1.8647,-3.9271761966666654,[2.68],,10.1021/jacs.5b03986,Double anions
mp-20194,CeO2,True,False,1.8647,-3.9271761966666654,[2.0],,10.1021/jacs.5b03986,Double anions
mp-20194,CeO2,True,False,1.8647,-3.9271761966666654,[5.5],,10.1021/jacs.5b03986,Double anions
mp-20194,CeO2,True,False,1.8647,-3.9271761966666654,[1.1],,10.1021/jacs.5b03986,Double anions
mp-5690,GdScO3,False,False,3.1418,-3.920327644499998,[5.2],,10.1016/j.cej.2015.07.043,Chalcogenides
mp-504886,Gd2O3,True,False,2.9411,-3.895411792000001,[6.8],,10.1016/j.tsf.2005.02.005,Double anions
mp-504886,Gd2O3,True,False,2.9411,-3.895411792000001,[5.2],,10.1016/S0030-4018(02)01999-5,Double anions
mp-504886,Gd2O3,True,False,2.9411,-3.895411792000001,[5.93],,10.1039/c8tc01682h,Double anions
mp-504886,Gd2O3,True,False,2.9411,-3.895411792000001,[6.1],,10.1039/c8tc01682h,Double anions
mp-504886,Gd2O3,True,False,2.9411,-3.895411792000001,[6.0],,10.1039/c4ra07144a,Double anions
mp-504886,Gd2O3,True,False,2.9411,-3.895411792000001,[5.9],,10.1039/c4tb00763h,Double anions
mp-504886,Gd2O3,True,False,2.9411,-3.895411792000001,[5.2],,10.1007/s41779-017-0152-5,Double anions
mp-504886,Gd2O3,True,False,2.9411,-3.895411792000001,[4.63],,10.1007/s10854-017-7035-y,Double anions
mp-504886,Gd2O3,True,False,2.9411,-3.895411792000001,[5.5],2420,10.1007/s41779-019-00378-8,Double anions
mp-504886,Gd2O3,True,False,2.9411,-3.895411792000001,[5.4],,10.1007/s13204-020-01479-8,Double anions
mp-504886,Gd2O3,True,False,2.9411,-3.895411792000001,[5.2],,10.1007/s00339-015-9435-2,Double anions
mp-504886,Gd2O3,True,False,2.9411,-3.895411792000001,[5.6],,10.1007/s10971-020-05387-9,Double anions
mp-504886,Gd2O3,True,False,2.9411,-3.895411792000001,[4.2],,10.1007/s10854-018-00656-4,Double anions
mp-504886,Gd2O3,True,False,2.9411,-3.895411792000001,[1.36],,10.1021/jacs.5b03986,Double anions
mp-504886,Gd2O3,True,False,2.9411,-3.895411792000001,[2.9],,10.1021/jacs.5b03986,Double anions
mp-754134,HfZrO4,False,True,3.5612,-3.877764332499998,[5.4],,10.1016/j.tsf.2016.09.001,Oxides
mp-1968,La2O3,True,False,3.824799999999999,-3.8759289195,[4.3],,10.1016/j.matpr.2017.04.097,Double anions
mp-1968,La2O3,True,False,3.824799999999999,-3.8759289195,[5.0],,10.1016/j.matpr.2019.07.700,Double anions
mp-1968,La2O3,True,False,3.824799999999999,-3.8759289195,[4.46],,10.1016/j.optmat.2019.109579,Double anions
mp-1968,La2O3,True,False,3.824799999999999,-3.8759289195,[1.1],,10.1016/j.physb.2009.12.075,Double anions
mp-1968,La2O3,True,False,3.824799999999999,-3.8759289195,[5.18],,10.1016/j.physb.2017.01.015,Double anions
mp-1968,La2O3,True,False,3.824799999999999,-3.8759289195,[5.6],,10.1016/j.tsf.2005.08.159,Double anions
mp-1968,La2O3,True,False,3.824799999999999,-3.8759289195,[5.5],,10.1016/j.tsf.2005.08.159,Double anions
mp-1968,La2O3,True,False,3.824799999999999,-3.8759289195,[6.2],,10.1016/j.tsf.2005.08.159,Double anions
mp-1968,La2O3,True,False,3.824799999999999,-3.8759289195,[5.8],,10.1016/j.tsf.2010.03.137,Double anions
mp-1968,La2O3,True,False,3.824799999999999,-3.8759289195,[5.5],,10.1016/j.tsf.2013.04.018,Double anions
mp-1968,La2O3,True,False,3.824799999999999,-3.8759289195,[5.68],,10.1039/c8ra07438k,Double anions
mp-1968,La2O3,True,False,3.824799999999999,-3.8759289195,[5.5],,10.1039/c6ra22118a,Double anions
mp-1968,La2O3,True,False,3.824799999999999,-3.8759289195,[3.82],,10.1039/c9cp02337b,Double anions
mp-1968,La2O3,True,False,3.824799999999999,-3.8759289195,[0.05],,10.1039/d0cy00141d,Double anions
mp-1968,La2O3,True,False,3.824799999999999,-3.8759289195,[5.84],,10.1007/s10854-016-5339-y,Double anions
mp-1968,La2O3,True,False,3.824799999999999,-3.8759289195,[5.3],,10.1007/s10853-013-7842-3,Double anions
mp-1968,La2O3,True,False,3.824799999999999,-3.8759289195,[5.5],,10.1186/s11671-017-2018-8,Double anions
mp-1968,La2O3,True,False,3.824799999999999,-3.8759289195,[5.3],,10.1186/s11671-017-2018-8,Double anions
mp-1968,La2O3,True,False,3.824799999999999,-3.8759289195,[6.0],,10.1186/s11671-017-2018-8,Double anions
mp-1968,La2O3,True,False,3.824799999999999,-3.8759289195,[5.4],,10.1007/s00339-017-1057-4,Double anions
mp-1968,La2O3,True,False,3.824799999999999,-3.8759289195,[5.6],,10.1007/s10854-013-1505-7,Double anions
mp-1968,La2O3,True,False,3.824799999999999,-3.8759289195,[3.9],,10.1007/s10854-017-7144-7,Double anions
mp-1968,La2O3,True,False,3.824799999999999,-3.8759289195,[4.8],,10.1007/s00604-017-2364-3,Double anions
mp-1968,La2O3,True,False,3.824799999999999,-3.8759289195,[4.1],,10.1007/s00604-017-2364-3,Double anions
mp-1968,La2O3,True,False,3.824799999999999,-3.8759289195,[4.5],,10.1007/s10832-014-9894-4,Double anions
mp-1968,La2O3,True,False,3.824799999999999,-3.8759289195,[6.0],,10.1007/s10854-019-02718-7,Double anions
mp-1968,La2O3,True,False,3.824799999999999,-3.8759289195,[5.6],,10.1007/s12598-020-01380-x,Double anions
mp-1968,La2O3,True,False,3.824799999999999,-3.8759289195,[5.8],,10.1186/s11671-016-1623-2,Double anions