mpids,formula,is_stable,theoretical,band_gap,formation_energy_per_atom,Value,Temperature_raw_value,DOI,compound_type
mp-390,TiO2,True,False,2.0586,-3.508055451944444,[3.2],,10.1016/j.cej.2020.125736,Double anions
mp-390,TiO2,True,False,2.0586,-3.508055451944444,[1.91],,10.1016/j.cej.2020.125759,Double anions
mp-390,TiO2,True,False,2.0586,-3.508055451944444,[3.31],,10.1016/j.cej.2020.125807,Double anions
mp-390,TiO2,True,False,2.0586,-3.508055451944444,[3.23],,10.1016/j.cej.2020.125815,Double anions
mp-390,TiO2,True,False,2.0586,-3.508055451944444,[3.12],,10.1016/j.cej.2020.125931,Double anions
mp-390,TiO2,True,False,2.0586,-3.508055451944444,[3.2],,10.1016/j.cej.2020.126052,Double anions
mp-390,TiO2,True,False,2.0586,-3.508055451944444,[3.2],,10.1016/j.cej.2020.126099,Double anions
mp-390,TiO2,True,False,2.0586,-3.508055451944444,[3.2],,10.1016/j.cjche.2013.08.001,Double anions
mp-390,TiO2,True,False,2.0586,-3.508055451944444,[3.2],,10.1016/j.cjche.2014.06.015,Double anions
mp-390,TiO2,True,False,2.0586,-3.508055451944444,[3.2],,10.1016/j.cjche.2015.05.003,Double anions
mp-390,TiO2,True,False,2.0586,-3.508055451944444,[3.14],,10.1016/j.cjche.2015.05.003,Double anions
mp-390,TiO2,True,False,2.0586,-3.508055451944444,[3.2],,10.1016/j.cjche.2015.11.026,Double anions
mp-390,TiO2,True,False,2.0586,-3.508055451944444,[0.03],,10.1016/j.cjche.2016.05.024,Double anions
mp-390,TiO2,True,False,2.0586,-3.508055451944444,[2.97],,10.1016/j.cjche.2016.08.003,Double anions
mp-390,TiO2,True,False,2.0586,-3.508055451944444,[3.2],,10.1016/j.cjche.2018.04.023,Double anions
mp-390,TiO2,True,False,2.0586,-3.508055451944444,[3.0],,10.1016/j.cjche.2018.04.023,Double anions
mp-390,TiO2,True,False,2.0586,-3.508055451944444,[3.2],,10.1016/j.cjche.2018.11.001,Double anions
mp-390,TiO2,True,False,2.0586,-3.508055451944444,[3.0],,10.1016/j.cjche.2019.01.036,Double anions
mp-390,TiO2,True,False,2.0586,-3.508055451944444,[3.18],,10.1016/j.cjche.2019.04.002,Double anions
mp-390,TiO2,True,False,2.0586,-3.508055451944444,[3.2],,10.1016/j.cjche.2020.03.030,Double anions
mp-390,TiO2,True,False,2.0586,-3.508055451944444,[3.2],,10.1016/j.jece.2013.04.017,Double anions
mp-390,TiO2,True,False,2.0586,-3.508055451944444,[3.2],,10.1016/j.jece.2013.04.018,Double anions
mp-390,TiO2,True,False,2.0586,-3.508055451944444,[3.2],,10.1016/j.jece.2013.06.019,Double anions
mp-390,TiO2,True,False,2.0586,-3.508055451944444,[3.6],300,10.1016/j.jece.2013.08.021,Double anions
mp-390,TiO2,True,False,2.0586,-3.508055451944444,[3.2],,10.1016/j.jece.2013.08.022,Double anions
mp-390,TiO2,True,False,2.0586,-3.508055451944444,[3.2],,10.1016/j.jece.2014.01.022,Double anions
mp-390,TiO2,True,False,2.0586,-3.508055451944444,[3.1],,10.1016/j.jece.2014.01.022,Double anions
mp-390,TiO2,True,False,2.0586,-3.508055451944444,[2.97],,10.1016/j.jece.2014.01.022,Double anions
mp-390,TiO2,True,False,2.0586,-3.508055451944444,[3.2],,10.1016/j.jece.2014.02.016,Double anions
mp-390,TiO2,True,False,2.0586,-3.508055451944444,[3.15],,10.1016/j.jece.2014.02.016,Double anions
mp-390,TiO2,True,False,2.0586,-3.508055451944444,[5.84],,10.1016/j.jece.2014.02.016,Double anions
mp-390,TiO2,True,False,2.0586,-3.508055451944444,[3.15],,10.1016/j.jece.2014.06.021,Double anions
mp-390,TiO2,True,False,2.0586,-3.508055451944444,[3.2],,10.1016/j.jece.2014.06.023,Double anions
mp-390,TiO2,True,False,2.0586,-3.508055451944444,[3.3],,10.1016/j.jece.2014.07.015,Double anions
mp-390,TiO2,True,False,2.0586,-3.508055451944444,[3.2],,10.1016/j.jece.2014.07.022,Double anions
mp-390,TiO2,True,False,2.0586,-3.508055451944444,[3.3],,10.1016/j.jece.2014.10.016,Double anions
mp-390,TiO2,True,False,2.0586,-3.508055451944444,[3.2],,10.1016/j.jece.2014.10.016,Double anions
mp-390,TiO2,True,False,2.0586,-3.508055451944444,[3.2],,10.1016/j.jece.2015.04.026,Double anions
mp-390,TiO2,True,False,2.0586,-3.508055451944444,[3.2],,10.1016/j.jece.2015.06.015,Double anions
mp-390,TiO2,True,False,2.0586,-3.508055451944444,[3.2],,10.1016/j.jece.2015.09.020,Double anions
mp-390,TiO2,True,False,2.0586,-3.508055451944444,[3.2],,10.1016/j.jece.2015.10.023,Double anions
mp-390,TiO2,True,False,2.0586,-3.508055451944444,[2.7],,10.1016/j.jece.2015.10.023,Double anions
mp-390,TiO2,True,False,2.0586,-3.508055451944444,[2.9],,10.1016/j.jece.2015.11.007,Double anions
mp-390,TiO2,True,False,2.0586,-3.508055451944444,[3.2],,10.1016/j.jece.2015.11.040,Double anions
mp-390,TiO2,True,False,2.0586,-3.508055451944444,[2.88],,10.1016/j.jece.2016.01.031,Double anions
mp-390,TiO2,True,False,2.0586,-3.508055451944444,[3.15],,10.1016/j.jece.2016.01.031,Double anions
mp-390,TiO2,True,False,2.0586,-3.508055451944444,[3.01],,10.1016/j.jece.2016.01.031,Double anions
mp-390,TiO2,True,False,2.0586,-3.508055451944444,[2.99],,10.1016/j.jece.2016.01.032,Double anions
mp-390,TiO2,True,False,2.0586,-3.508055451944444,[3.08],,10.1016/j.jece.2016.01.032,Double anions
mp-390,TiO2,True,False,2.0586,-3.508055451944444,[3.2],,10.1016/j.jece.2016.03.041,Double anions
mp-390,TiO2,True,False,2.0586,-3.508055451944444,[3.2],,10.1016/j.jece.2016.04.019,Double anions
mp-390,TiO2,True,False,2.0586,-3.508055451944444,[3.1],,10.1016/j.jece.2016.06.029,Double anions
mp-390,TiO2,True,False,2.0586,-3.508055451944444,[3.2],,10.1016/j.jece.2016.07.026,Double anions
mp-390,TiO2,True,False,2.0586,-3.508055451944444,[3.3],,10.1016/j.jece.2016.09.009,Double anions
mp-390,TiO2,True,False,2.0586,-3.508055451944444,[3.2],,10.1016/j.jece.2017.01.048,Double anions
mp-390,TiO2,True,False,2.0586,-3.508055451944444,[3.2],,10.1016/j.jece.2017.02.024,Double anions
mp-390,TiO2,True,False,2.0586,-3.508055451944444,[3.41],,10.1016/j.jece.2017.02.036,Double anions
mp-390,TiO2,True,False,2.0586,-3.508055451944444,[3.05],,10.1016/j.jece.2017.04.032,Double anions
mp-390,TiO2,True,False,2.0586,-3.508055451944444,[3.2],,10.1016/j.jece.2017.05.028,Double anions
mp-390,TiO2,True,False,2.0586,-3.508055451944444,[3.1],,10.1016/j.jece.2017.05.028,Double anions
mp-390,TiO2,True,False,2.0586,-3.508055451944444,[3.2],,10.1016/j.jece.2017.05.042,Double anions
mp-390,TiO2,True,False,2.0586,-3.508055451944444,[3.0],,10.1016/j.jece.2017.06.010,Double anions
mp-390,TiO2,True,False,2.0586,-3.508055451944444,[3.2],,10.1016/j.jece.2017.06.010,Double anions
mp-390,TiO2,True,False,2.0586,-3.508055451944444,[3.2],,10.1016/j.jece.2017.06.014,Double anions
mp-390,TiO2,True,False,2.0586,-3.508055451944444,[3.2],,10.1016/j.jece.2017.07.024,Double anions
mp-390,TiO2,True,False,2.0586,-3.508055451944444,[3.2],,10.1016/j.jece.2017.07.042,Double anions
mp-390,TiO2,True,False,2.0586,-3.508055451944444,[3.24],,10.1016/j.jece.2017.07.066,Double anions
mp-390,TiO2,True,False,2.0586,-3.508055451944444,[3.25],,10.1016/j.jece.2017.07.070,Double anions
mp-390,TiO2,True,False,2.0586,-3.508055451944444,[3.2],,10.1016/j.jece.2017.07.080,Double anions
mp-390,TiO2,True,False,2.0586,-3.508055451944444,[3.2],,10.1016/j.jece.2017.09.038,Double anions
mp-390,TiO2,True,False,2.0586,-3.508055451944444,[3.2],,10.1016/j.jece.2017.09.042,Double anions
mp-390,TiO2,True,False,2.0586,-3.508055451944444,[2.35],,10.1016/j.jece.2017.09.050,Double anions
mp-390,TiO2,True,False,2.0586,-3.508055451944444,[3.2],,10.1016/j.jece.2017.10.030,Double anions
mp-390,TiO2,True,False,2.0586,-3.508055451944444,[3.2],,10.1016/j.jece.2017.10.050,Double anions
mp-390,TiO2,True,False,2.0586,-3.508055451944444,[3.2],,10.1016/j.jece.2017.11.008,Double anions
mp-390,TiO2,True,False,2.0586,-3.508055451944444,[3.2],,10.1016/j.jece.2017.11.025,Double anions
mp-390,TiO2,True,False,2.0586,-3.508055451944444,[3.2],,10.1016/j.jece.2017.11.071,Double anions
mp-390,TiO2,True,False,2.0586,-3.508055451944444,[3.2],,10.1016/j.jece.2018.01.062,Double anions
mp-390,TiO2,True,False,2.0586,-3.508055451944444,[3.2],,10.1016/j.jece.2018.02.026,Double anions
mp-390,TiO2,True,False,2.0586,-3.508055451944444,[3.18],,10.1016/j.jece.2018.02.026,Double anions
mp-390,TiO2,True,False,2.0586,-3.508055451944444,[3.2],,10.1016/j.jece.2018.02.040,Double anions
mp-390,TiO2,True,False,2.0586,-3.508055451944444,[3.2],,10.1016/j.jece.2018.03.036,Double anions
mp-390,TiO2,True,False,2.0586,-3.508055451944444,[3.2],,10.1016/j.jece.2018.04.017,Double anions
mp-390,TiO2,True,False,2.0586,-3.508055451944444,[2.7],,10.1016/j.jece.2018.04.065,Double anions
mp-390,TiO2,True,False,2.0586,-3.508055451944444,[3.04],,10.1016/j.jece.2018.04.065,Double anions
mp-390,TiO2,True,False,2.0586,-3.508055451944444,[3.2],,10.1016/j.jece.2018.05.004,Double anions
mp-390,TiO2,True,False,2.0586,-3.508055451944444,[3.1],,10.1016/j.jece.2018.05.004,Double anions
mp-390,TiO2,True,False,2.0586,-3.508055451944444,[3.2],,10.1016/j.jece.2018.05.032,Double anions
mp-390,TiO2,True,False,2.0586,-3.508055451944444,[3.2],,10.1016/j.jece.2018.06.006,Double anions
mp-390,TiO2,True,False,2.0586,-3.508055451944444,[3.2],,10.1016/j.jece.2018.06.035,Double anions
mp-390,TiO2,True,False,2.0586,-3.508055451944444,[3.2],,10.1016/j.jece.2018.06.051,Double anions
mp-390,TiO2,True,False,2.0586,-3.508055451944444,[0.07],,10.1016/j.jece.2018.07.009,Double anions
mp-390,TiO2,True,False,2.0586,-3.508055451944444,[3.2],,10.1016/j.jece.2018.07.049,Double anions
mp-390,TiO2,True,False,2.0586,-3.508055451944444,[3.2],,10.1016/j.jece.2018.08.042,Double anions
mp-390,TiO2,True,False,2.0586,-3.508055451944444,[2.83],,10.1016/j.jece.2018.08.042,Double anions
mp-390,TiO2,True,False,2.0586,-3.508055451944444,[3.2],,10.1016/j.jece.2018.08.055,Double anions
mp-390,TiO2,True,False,2.0586,-3.508055451944444,[3.2],,10.1016/j.jece.2018.09.002,Double anions
mp-390,TiO2,True,False,2.0586,-3.508055451944444,[3.2],,10.1016/j.jece.2018.09.029,Double anions
mp-390,TiO2,True,False,2.0586,-3.508055451944444,[1.5],,10.1016/j.jece.2018.10.001,Double anions
mp-390,TiO2,True,False,2.0586,-3.508055451944444,[3.2],,10.1016/j.jece.2018.10.065,Double anions
mp-390,TiO2,True,False,2.0586,-3.508055451944444,[3.2],,10.1016/j.jece.2018.11.008,Double anions
mp-390,TiO2,True,False,2.0586,-3.508055451944444,[3.0],,10.1016/j.jece.2018.11.008,Double anions
mp-390,TiO2,True,False,2.0586,-3.508055451944444,[3.2],,10.1016/j.jece.2019.102884,Double anions
mp-390,TiO2,True,False,2.0586,-3.508055451944444,[2.43],,10.1016/j.jece.2019.102884,Double anions
mp-390,TiO2,True,False,2.0586,-3.508055451944444,[3.2],,10.1016/j.jece.2019.102956,Double anions
mp-390,TiO2,True,False,2.0586,-3.508055451944444,[3.2],,10.1016/j.jece.2019.102968,Double anions
mp-390,TiO2,True,False,2.0586,-3.508055451944444,[2.15],,10.1016/j.jece.2019.102968,Double anions
mp-390,TiO2,True,False,2.0586,-3.508055451944444,[3.2],,10.1016/j.jece.2019.103096,Double anions
mp-390,TiO2,True,False,2.0586,-3.508055451944444,[3.26],,10.1016/j.jece.2019.103096,Double anions
mp-390,TiO2,True,False,2.0586,-3.508055451944444,[3.0],,10.1016/j.jece.2019.103178,Double anions
mp-390,TiO2,True,False,2.0586,-3.508055451944444,[3.2],,10.1016/j.jece.2019.103180,Double anions
mp-390,TiO2,True,False,2.0586,-3.508055451944444,[2.37],,10.1016/j.jece.2019.103180,Double anions
mp-390,TiO2,True,False,2.0586,-3.508055451944444,[3.1],,10.1016/j.jece.2019.103180,Double anions
mp-390,TiO2,True,False,2.0586,-3.508055451944444,[3.55],,10.1016/j.jece.2019.103213,Double anions
mp-390,TiO2,True,False,2.0586,-3.508055451944444,[3.0],,10.1016/j.jece.2019.103248,Double anions
mp-390,TiO2,True,False,2.0586,-3.508055451944444,[3.03],,10.1016/j.jece.2019.103248,Double anions
mp-390,TiO2,True,False,2.0586,-3.508055451944444,[3.2],,10.1016/j.jece.2019.103248,Double anions
mp-390,TiO2,True,False,2.0586,-3.508055451944444,[5.81],,10.1016/j.jece.2019.103253,Double anions
mp-390,TiO2,True,False,2.0586,-3.508055451944444,[2.47],,10.1016/j.jece.2019.103253,Double anions
mp-390,TiO2,True,False,2.0586,-3.508055451944444,[3.2],,10.1016/j.jece.2019.103267,Double anions
mp-390,TiO2,True,False,2.0586,-3.508055451944444,[2.41],,10.1016/j.jece.2019.103289,Double anions
mp-390,TiO2,True,False,2.0586,-3.508055451944444,[3.2],,10.1016/j.jece.2019.103358,Double anions
mp-390,TiO2,True,False,2.0586,-3.508055451944444,[3.23],,10.1016/j.jece.2019.103358,Double anions
mp-390,TiO2,True,False,2.0586,-3.508055451944444,[2.8],,10.1016/j.jece.2019.103361,Double anions
mp-390,TiO2,True,False,2.0586,-3.508055451944444,[3.12],,10.1016/j.jece.2019.103361,Double anions
mp-390,TiO2,True,False,2.0586,-3.508055451944444,[2.9],,10.1016/j.jece.2019.103385,Double anions
mp-390,TiO2,True,False,2.0586,-3.508055451944444,[3.2],,10.1016/j.jece.2019.103452,Double anions
mp-390,TiO2,True,False,2.0586,-3.508055451944444,[3.02],,10.1016/j.jece.2019.103454,Double anions
mp-390,TiO2,True,False,2.0586,-3.508055451944444,[3.17],,10.1016/j.jece.2019.103454,Double anions
mp-390,TiO2,True,False,2.0586,-3.508055451944444,[3.2],,10.1016/j.jece.2019.103639,Double anions
mp-390,TiO2,True,False,2.0586,-3.508055451944444,[0.78],,10.1016/j.jece.2020.103755,Double anions
mp-390,TiO2,True,False,2.0586,-3.508055451944444,[3.2],,10.1016/j.jece.2020.103787,Double anions
mp-390,TiO2,True,False,2.0586,-3.508055451944444,[3.2],,10.1016/j.jece.2020.103896,Double anions
mp-390,TiO2,True,False,2.0586,-3.508055451944444,[2.6],,10.1016/j.jece.2020.103896,Double anions
mp-390,TiO2,True,False,2.0586,-3.508055451944444,[3.2],,10.1016/j.jece.2020.104024,Double anions
mp-390,TiO2,True,False,2.0586,-3.508055451944444,[1.5],,10.1016/j.jece.2020.104024,Double anions
mp-390,TiO2,True,False,2.0586,-3.508055451944444,[3.2],,10.1016/j.jece.2020.104073,Double anions
mp-390,TiO2,True,False,2.0586,-3.508055451944444,[3.02],,10.1016/j.jece.2020.104082,Double anions
mp-390,TiO2,True,False,2.0586,-3.508055451944444,[3.2],,10.1016/j.jece.2020.104121,Double anions
mp-390,TiO2,True,False,2.0586,-3.508055451944444,[3.0],,10.1016/j.jece.2020.104143,Double anions
mp-390,TiO2,True,False,2.0586,-3.508055451944444,[3.2],,10.1016/j.jece.2020.104152,Double anions
mp-390,TiO2,True,False,2.0586,-3.508055451944444,[2.83],,10.1016/j.jece.2020.104162,Double anions
mp-390,TiO2,True,False,2.0586,-3.508055451944444,[3.2],,10.1016/j.jece.2020.104162,Double anions
mp-390,TiO2,True,False,2.0586,-3.508055451944444,[1.89],,10.1016/j.jece.2020.104168,Double anions
mp-390,TiO2,True,False,2.0586,-3.508055451944444,[2.2],,10.1016/j.jece.2020.104168,Double anions
mp-390,TiO2,True,False,2.0586,-3.508055451944444,[3.22],,10.1016/j.jece.2020.104168,Double anions
mp-390,TiO2,True,False,2.0586,-3.508055451944444,[3.0],,10.1016/j.jece.2020.104168,Double anions
mp-390,TiO2,True,False,2.0586,-3.508055451944444,[2.32],,10.1016/j.jece.2020.104168,Double anions
mp-390,TiO2,True,False,2.0586,-3.508055451944444,[3.12],,10.1016/j.jece.2020.104168,Double anions
mp-390,TiO2,True,False,2.0586,-3.508055451944444,[3.19],,10.1016/j.jece.2020.104168,Double anions
mp-390,TiO2,True,False,2.0586,-3.508055451944444,[2.9],,10.1016/j.jece.2020.104168,Double anions
mp-390,TiO2,True,False,2.0586,-3.508055451944444,[3.18],,10.1016/j.jece.2020.104168,Double anions
mp-390,TiO2,True,False,2.0586,-3.508055451944444,[3.11],,10.1016/j.jece.2020.104168,Double anions
mp-390,TiO2,True,False,2.0586,-3.508055451944444,[2.13],,10.1016/j.jece.2020.104168,Double anions
mp-390,TiO2,True,False,2.0586,-3.508055451944444,[1.5],,10.1016/j.jece.2020.104168,Double anions
mp-390,TiO2,True,False,2.0586,-3.508055451944444,[1.71],,10.1016/j.jece.2020.104168,Double anions
mp-390,TiO2,True,False,2.0586,-3.508055451944444,[1.61],,10.1016/j.jece.2020.104168,Double anions
mp-390,TiO2,True,False,2.0586,-3.508055451944444,[3.09],,10.1016/j.jece.2020.104168,Double anions
mp-390,TiO2,True,False,2.0586,-3.508055451944444,[2.22],,10.1016/j.jece.2020.104168,Double anions
mp-390,TiO2,True,False,2.0586,-3.508055451944444,[2.92],,10.1016/j.jece.2020.104168,Double anions
mp-390,TiO2,True,False,2.0586,-3.508055451944444,[2.1],,10.1016/j.jece.2020.104168,Double anions
mp-390,TiO2,True,False,2.0586,-3.508055451944444,[0.3],,10.1016/j.jece.2020.104168,Double anions
mp-390,TiO2,True,False,2.0586,-3.508055451944444,[2.267],,10.1016/j.jece.2020.104168,Double anions
mp-390,TiO2,True,False,2.0586,-3.508055451944444,[3.1],,10.1016/j.jece.2020.104168,Double anions
mp-390,TiO2,True,False,2.0586,-3.508055451944444,[2.54],,10.1016/j.jece.2020.104168,Double anions
mp-390,TiO2,True,False,2.0586,-3.508055451944444,[1.95],,10.1016/j.jece.2020.104168,Double anions
mp-390,TiO2,True,False,2.0586,-3.508055451944444,[2.26],,10.1016/j.jece.2020.104168,Double anions
mp-390,TiO2,True,False,2.0586,-3.508055451944444,[3.25],,10.1016/j.jece.2020.104168,Double anions
mp-390,TiO2,True,False,2.0586,-3.508055451944444,[3.04],,10.1016/j.jece.2020.104168,Double anions
mp-390,TiO2,True,False,2.0586,-3.508055451944444,[3.26],,10.1016/j.jece.2020.104168,Double anions
mp-390,TiO2,True,False,2.0586,-3.508055451944444,[3.0],,10.1016/j.jece.2020.104175,Double anions
mp-390,TiO2,True,False,2.0586,-3.508055451944444,[3.2],,10.1016/j.jece.2020.104178,Double anions
mp-390,TiO2,True,False,2.0586,-3.508055451944444,[1.95],,10.1016/j.jece.2020.104178,Double anions
mp-390,TiO2,True,False,2.0586,-3.508055451944444,[2.1],,10.1016/j.jece.2020.104181,Double anions
mp-390,TiO2,True,False,2.0586,-3.508055451944444,[3.03],,10.1016/j.jece.2020.104190,Double anions
mp-390,TiO2,True,False,2.0586,-3.508055451944444,[3.2],,10.1016/j.jece.2020.104211,Double anions
mp-390,TiO2,True,False,2.0586,-3.508055451944444,[3.2],,10.1016/j.jece.2020.104227,Double anions
mp-390,TiO2,True,False,2.0586,-3.508055451944444,[3.2],,10.1016/S1004-9541(14)60031-8,Double anions
mp-390,TiO2,True,False,2.0586,-3.508055451944444,[3.2],,10.1016/j.matpr.2015.07.204,Double anions
mp-390,TiO2,True,False,2.0586,-3.508055451944444,[3.2],,10.1016/j.matpr.2015.10.070,Double anions
mp-390,TiO2,True,False,2.0586,-3.508055451944444,[3.2],,10.1016/j.matpr.2015.11.054,Double anions
mp-390,TiO2,True,False,2.0586,-3.508055451944444,[3.0],,10.1016/j.matpr.2015.11.130,Double anions
mp-390,TiO2,True,False,2.0586,-3.508055451944444,[3.2],,10.1016/j.matpr.2016.01.020,Double anions
mp-390,TiO2,True,False,2.0586,-3.508055451944444,[2.4],,10.1016/j.matpr.2016.01.020,Double anions
mp-390,TiO2,True,False,2.0586,-3.508055451944444,[3.2],,10.1016/j.matpr.2016.04.029,Double anions
mp-390,TiO2,True,False,2.0586,-3.508055451944444,[3.2],,10.1016/j.matpr.2016.04.095,Double anions
mp-390,TiO2,True,False,2.0586,-3.508055451944444,[3.3],,10.1016/j.matpr.2016.11.026,Double anions
mp-390,TiO2,True,False,2.0586,-3.508055451944444,[3.2],,10.1016/j.matpr.2017.01.071,Double anions
mp-390,TiO2,True,False,2.0586,-3.508055451944444,[3.11],,10.1016/j.matpr.2017.10.058,Double anions
mp-390,TiO2,True,False,2.0586,-3.508055451944444,[3.1],,10.1016/j.matpr.2017.11.014,Double anions
mp-390,TiO2,True,False,2.0586,-3.508055451944444,[3.5],,10.1016/j.matpr.2017.12.237,Double anions
mp-390,TiO2,True,False,2.0586,-3.508055451944444,[3.2],,10.1016/j.matpr.2017.12.316,Double anions
mp-390,TiO2,True,False,2.0586,-3.508055451944444,[3.28],,10.1016/j.matpr.2017.12.345,Double anions
mp-390,TiO2,True,False,2.0586,-3.508055451944444,[3.0],,10.1016/j.matpr.2017.12.391,Double anions
mp-390,TiO2,True,False,2.0586,-3.508055451944444,[3.37],,10.1016/j.matpr.2018.05.071,Double anions
mp-390,TiO2,True,False,2.0586,-3.508055451944444,[2.96],,10.1016/j.matpr.2018.06.474,Double anions
mp-390,TiO2,True,False,2.0586,-3.508055451944444,[3.2],,10.1016/j.matpr.2018.06.475,Double anions
mp-390,TiO2,True,False,2.0586,-3.508055451944444,[3.2],,10.1016/j.matpr.2018.06.521,Double anions
mp-390,TiO2,True,False,2.0586,-3.508055451944444,[3.2],,10.1016/j.matpr.2018.07.023,Double anions
mp-390,TiO2,True,False,2.0586,-3.508055451944444,[3.3],,10.1016/j.matpr.2018.11.065,Double anions
mp-390,TiO2,True,False,2.0586,-3.508055451944444,[3.2],,10.1016/j.matpr.2018.12.063,Double anions
mp-390,TiO2,True,False,2.0586,-3.508055451944444,[3.2],,10.1016/j.matpr.2019.02.002,Double anions
mp-390,TiO2,True,False,2.0586,-3.508055451944444,[3.2],,10.1016/j.matpr.2019.02.099,Double anions