mpids,formula,is_stable,theoretical,band_gap,formation_energy_per_atom,Value,Temperature_raw_value,DOI,compound_type
mp-390,TiO2,True,False,2.0586,-3.508055451944444,[3.0],,10.1007/s10562-005-9186-3,Double anions
mp-390,TiO2,True,False,2.0586,-3.508055451944444,[1.84],,10.1007/s10562-005-9186-3,Double anions
mp-390,TiO2,True,False,2.0586,-3.508055451944444,[1.87],,10.1007/s10562-005-9186-3,Double anions
mp-390,TiO2,True,False,2.0586,-3.508055451944444,[3.2],,10.1007/s10562-006-9000-x,Double anions
mp-390,TiO2,True,False,2.0586,-3.508055451944444,[3.2],,10.1007/s10562-009-0076-y,Double anions
mp-390,TiO2,True,False,2.0586,-3.508055451944444,[3.2],,10.1007/s10562-009-0217-3,Double anions
mp-390,TiO2,True,False,2.0586,-3.508055451944444,[3.17],,10.1007/s10562-011-0740-x,Double anions
mp-390,TiO2,True,False,2.0586,-3.508055451944444,[1.96],,10.1007/s10562-011-0740-x,Double anions
mp-390,TiO2,True,False,2.0586,-3.508055451944444,[3.21],,10.1007/s10562-014-1233-5,Double anions
mp-390,TiO2,True,False,2.0586,-3.508055451944444,[3.2],,10.1007/s10562-017-2134-1,Double anions
mp-390,TiO2,True,False,2.0586,-3.508055451944444,[3.2],,10.1007/s10562-017-2197-z,Double anions
mp-390,TiO2,True,False,2.0586,-3.508055451944444,[3.2],,10.1007/s10562-019-02769-9,Double anions
mp-390,TiO2,True,False,2.0586,-3.508055451944444,[3.2],,10.1007/s10562-019-03017-w,Double anions
mp-390,TiO2,True,False,2.0586,-3.508055451944444,[3.0],,10.1007/s10562-019-03017-w,Double anions
mp-390,TiO2,True,False,2.0586,-3.508055451944444,[2.8],,10.1007/s10562-019-03017-w,Double anions
mp-390,TiO2,True,False,2.0586,-3.508055451944444,[3.2],,10.1007/s10562-020-03146-7,Double anions
mp-390,TiO2,True,False,2.0586,-3.508055451944444,[3.28],,10.1007/s10563-011-9126-8,Double anions
mp-390,TiO2,True,False,2.0586,-3.508055451944444,[3.2],,10.1007/s10570-020-03453-7,Double anions
mp-390,TiO2,True,False,2.0586,-3.508055451944444,[3.2],,10.1007/s10661-017-6097-x,Double anions
mp-390,TiO2,True,False,2.0586,-3.508055451944444,[3.0],,10.1007/s10668-018-0194-z,Double anions
mp-390,TiO2,True,False,2.0586,-3.508055451944444,[3.25],,10.1007/s10668-018-0194-z,Double anions
mp-390,TiO2,True,False,2.0586,-3.508055451944444,[3.26],,10.1007/s10800-015-0886-0,Double anions
mp-390,TiO2,True,False,2.0586,-3.508055451944444,[3.2],,10.1007/s10811-007-9218-z,Double anions
mp-390,TiO2,True,False,2.0586,-3.508055451944444,[3.2],,10.1007/s10832-018-0159-5,Double anions
mp-390,TiO2,True,False,2.0586,-3.508055451944444,[3.2],,10.1007/s10853-006-0917-7,Double anions
mp-390,TiO2,True,False,2.0586,-3.508055451944444,[3.7],,10.1007/s10853-006-6411-4,Double anions
mp-390,TiO2,True,False,2.0586,-3.508055451944444,[3.67],,10.1007/s10853-006-6411-4,Double anions
mp-390,TiO2,True,False,2.0586,-3.508055451944444,[2.22],,10.1007/s10853-008-2749-0,Double anions
mp-390,TiO2,True,False,2.0586,-3.508055451944444,[2.84],,10.1007/s10853-008-2749-0,Double anions
mp-390,TiO2,True,False,2.0586,-3.508055451944444,[3.2],,10.1007/s10853-008-3151-7,Double anions
mp-390,TiO2,True,False,2.0586,-3.508055451944444,[3.2],,10.1007/s10853-010-4981-7,Double anions
mp-390,TiO2,True,False,2.0586,-3.508055451944444,[3.2],,10.1007/s10853-011-5476-x,Double anions
mp-390,TiO2,True,False,2.0586,-3.508055451944444,[10.0],,10.1007/s10853-012-6638-1,Double anions
mp-390,TiO2,True,False,2.0586,-3.508055451944444,[3.04],,10.1007/s10853-012-6667-9,Double anions
mp-390,TiO2,True,False,2.0586,-3.508055451944444,[3.0],,10.1007/s10853-013-7761-3,Double anions
mp-390,TiO2,True,False,2.0586,-3.508055451944444,[3.2],,10.1007/s10853-014-8330-0,Double anions
mp-390,TiO2,True,False,2.0586,-3.508055451944444,[3.26],,10.1007/s10853-014-8366-1,Double anions
mp-390,TiO2,True,False,2.0586,-3.508055451944444,[2.34],,10.1007/s10853-014-8366-1,Double anions
mp-390,TiO2,True,False,2.0586,-3.508055451944444,[3.2],,10.1007/s10853-014-8506-7,Double anions
mp-390,TiO2,True,False,2.0586,-3.508055451944444,[3.2],,10.1007/s10853-014-8745-7,Double anions
mp-390,TiO2,True,False,2.0586,-3.508055451944444,[4.36],,10.1007/s10853-014-8745-7,Double anions
mp-390,TiO2,True,False,2.0586,-3.508055451944444,[2.11],,10.1007/s10853-014-8745-7,Double anions
mp-390,TiO2,True,False,2.0586,-3.508055451944444,[1.0],,10.1007/s10853-014-8745-7,Double anions
mp-390,TiO2,True,False,2.0586,-3.508055451944444,[3.3],,10.1007/s10853-015-8964-6,Double anions
mp-390,TiO2,True,False,2.0586,-3.508055451944444,[3.2],,10.1007/s10853-015-9070-5,Double anions
mp-390,TiO2,True,False,2.0586,-3.508055451944444,[3.2],,10.1007/s10853-016-0293-x,Double anions
mp-390,TiO2,True,False,2.0586,-3.508055451944444,[3.2],,10.1007/s10853-016-0629-6,Double anions
mp-390,TiO2,True,False,2.0586,-3.508055451944444,[3.49],,10.1007/s10853-017-1755-5,Double anions
mp-390,TiO2,True,False,2.0586,-3.508055451944444,[3.0],,10.1007/s10853-018-2368-3,Double anions
mp-390,TiO2,True,False,2.0586,-3.508055451944444,[2.4],,10.1007/s10853-018-3054-1,Double anions
mp-390,TiO2,True,False,2.0586,-3.508055451944444,[3.2],,10.1007/s10853-019-03424-9,Double anions
mp-390,TiO2,True,False,2.0586,-3.508055451944444,[3.2],,10.1007/s10853-019-03454-3,Double anions
mp-390,TiO2,True,False,2.0586,-3.508055451944444,[3.2],,10.1007/s10853-019-03996-6,Double anions
mp-390,TiO2,True,False,2.0586,-3.508055451944444,[3.2],,10.1007/s10853-019-04100-8,Double anions
mp-390,TiO2,True,False,2.0586,-3.508055451944444,[3.2],,10.1007/s10853-020-04483-z,Double anions
mp-390,TiO2,True,False,2.0586,-3.508055451944444,[3.37],,10.1007/s10854-013-1291-2,Double anions
mp-390,TiO2,True,False,2.0586,-3.508055451944444,[3.2],,10.1007/s10854-014-2001-4,Double anions
mp-390,TiO2,True,False,2.0586,-3.508055451944444,[3.31],,10.1007/s10854-014-2276-5,Double anions
mp-390,TiO2,True,False,2.0586,-3.508055451944444,[3.2],,10.1007/s10854-014-2573-z,Double anions
mp-390,TiO2,True,False,2.0586,-3.508055451944444,[3.55],,10.1007/s10854-014-2573-z,Double anions
mp-390,TiO2,True,False,2.0586,-3.508055451944444,[3.62],,10.1007/s10854-015-2678-z,Double anions
mp-390,TiO2,True,False,2.0586,-3.508055451944444,[3.31],,10.1007/s10854-015-2904-8,Double anions
mp-390,TiO2,True,False,2.0586,-3.508055451944444,[3.2],,10.1007/s10854-015-3058-4,Double anions
mp-390,TiO2,True,False,2.0586,-3.508055451944444,[3.2],,10.1007/s10854-015-3253-3,Double anions
mp-390,TiO2,True,False,2.0586,-3.508055451944444,[3.0],,10.1007/s10854-015-3705-9,Double anions
mp-390,TiO2,True,False,2.0586,-3.508055451944444,[2.6],,10.1007/s10854-015-3785-6,Double anions
mp-390,TiO2,True,False,2.0586,-3.508055451944444,[3.2],,10.1007/s10854-015-4061-5,Double anions
mp-390,TiO2,True,False,2.0586,-3.508055451944444,[3.2],,10.1007/s10854-015-4257-8,Double anions
mp-390,TiO2,True,False,2.0586,-3.508055451944444,[3.2],,10.1007/s10854-016-4295-x,Double anions
mp-390,TiO2,True,False,2.0586,-3.508055451944444,[3.2],160,10.1007/s10854-016-4389-5,Double anions
mp-390,TiO2,True,False,2.0586,-3.508055451944444,[3.0],120,10.1007/s10854-016-4389-5,Double anions
mp-390,TiO2,True,False,2.0586,-3.508055451944444,[2.98],,10.1007/s10854-016-4902-x,Double anions
mp-390,TiO2,True,False,2.0586,-3.508055451944444,[3.2],,10.1007/s10854-016-5062-8,Double anions
mp-390,TiO2,True,False,2.0586,-3.508055451944444,[3.38],,10.1007/s10854-016-5147-4,Double anions
mp-390,TiO2,True,False,2.0586,-3.508055451944444,[3.2],,10.1007/s10854-016-5298-3,Double anions
mp-390,TiO2,True,False,2.0586,-3.508055451944444,[2.47],,10.1007/s10854-016-5298-3,Double anions
mp-390,TiO2,True,False,2.0586,-3.508055451944444,[3.1],,10.1007/s10854-016-5390-8,Double anions
mp-390,TiO2,True,False,2.0586,-3.508055451944444,[3.16],,10.1007/s10854-016-5390-8,Double anions
mp-390,TiO2,True,False,2.0586,-3.508055451944444,[0.1],,10.1007/s10854-016-5390-8,Double anions
mp-390,TiO2,True,False,2.0586,-3.508055451944444,[3.36],,10.1007/s10854-016-5485-2,Double anions
mp-390,TiO2,True,False,2.0586,-3.508055451944444,[2.7],,10.1007/s10854-016-6244-0,Double anions
mp-390,TiO2,True,False,2.0586,-3.508055451944444,[2.2],,10.1007/s10854-016-6244-0,Double anions
mp-390,TiO2,True,False,2.0586,-3.508055451944444,[3.2],,10.1007/s10854-017-6501-x,Double anions
mp-390,TiO2,True,False,2.0586,-3.508055451944444,[3.07],,10.1007/s10854-017-6947-x,Double anions
mp-390,TiO2,True,False,2.0586,-3.508055451944444,[2.86],,10.1007/s10854-017-6947-x,Double anions
mp-390,TiO2,True,False,2.0586,-3.508055451944444,[2.5],,10.1007/s10854-017-7068-2,Double anions
mp-390,TiO2,True,False,2.0586,-3.508055451944444,[3.2],,10.1007/s10854-017-7159-0,Double anions
mp-390,TiO2,True,False,2.0586,-3.508055451944444,[3.24],,10.1007/s10854-017-7159-0,Double anions
mp-390,TiO2,True,False,2.0586,-3.508055451944444,[3.2],,10.1007/s10854-017-7318-3,Double anions
mp-390,TiO2,True,False,2.0586,-3.508055451944444,[2.38],,10.1007/s10854-017-7318-3,Double anions
mp-390,TiO2,True,False,2.0586,-3.508055451944444,[3.2],,10.1007/s10854-017-7386-4,Double anions
mp-390,TiO2,True,False,2.0586,-3.508055451944444,[3.2],,10.1007/s10854-017-7452-y,Double anions
mp-390,TiO2,True,False,2.0586,-3.508055451944444,[3.2],,10.1007/s10854-017-7641-8,Double anions
mp-390,TiO2,True,False,2.0586,-3.508055451944444,[3.1],,10.1007/s10854-017-7972-5,Double anions
mp-390,TiO2,True,False,2.0586,-3.508055451944444,[3.25],,10.1007/s10854-017-8011-2,Double anions
mp-390,TiO2,True,False,2.0586,-3.508055451944444,[3.45],,10.1007/s10854-017-8250-2,Double anions
mp-390,TiO2,True,False,2.0586,-3.508055451944444,[3.2],,10.1007/s10854-017-8250-2,Double anions
mp-390,TiO2,True,False,2.0586,-3.508055451944444,[3.01],,10.1007/s10854-017-8310-7,Double anions
mp-390,TiO2,True,False,2.0586,-3.508055451944444,[2.0],,10.1007/s10854-017-8494-x,Double anions
mp-390,TiO2,True,False,2.0586,-3.508055451944444,[3.2],,10.1007/s10854-018-8632-0,Double anions
mp-390,TiO2,True,False,2.0586,-3.508055451944444,[3.2],,10.1007/s10854-018-8939-x,Double anions
mp-390,TiO2,True,False,2.0586,-3.508055451944444,[3.24],,10.1007/s10854-018-9034-z,Double anions
mp-390,TiO2,True,False,2.0586,-3.508055451944444,[3.2],,10.1007/s10854-018-9296-5,Double anions
mp-390,TiO2,True,False,2.0586,-3.508055451944444,[3.2],,10.1007/s10854-018-9716-6,Double anions
mp-390,TiO2,True,False,2.0586,-3.508055451944444,[3.2],,10.1007/s10854-018-9759-8,Double anions
mp-390,TiO2,True,False,2.0586,-3.508055451944444,[3.23],,10.1007/s10854-019-01031-7,Double anions
mp-390,TiO2,True,False,2.0586,-3.508055451944444,[0.25],,10.1007/s10854-019-01031-7,Double anions
mp-390,TiO2,True,False,2.0586,-3.508055451944444,[3.12],,10.1007/s10854-019-01031-7,Double anions
mp-390,TiO2,True,False,2.0586,-3.508055451944444,[3.082],,10.1007/s10854-019-01259-3,Double anions
mp-390,TiO2,True,False,2.0586,-3.508055451944444,[3.068],,10.1007/s10854-019-01259-3,Double anions
mp-390,TiO2,True,False,2.0586,-3.508055451944444,[3.2],,10.1007/s10854-019-01321-0,Double anions
mp-390,TiO2,True,False,2.0586,-3.508055451944444,[3.2],,10.1007/s10854-019-01430-w,Double anions
mp-390,TiO2,True,False,2.0586,-3.508055451944444,[3.2],,10.1007/s10854-019-01438-2,Double anions
mp-390,TiO2,True,False,2.0586,-3.508055451944444,[3.2],,10.1007/s10854-019-01647-9,Double anions
mp-390,TiO2,True,False,2.0586,-3.508055451944444,[3.19],,10.1007/s10854-019-02036-y,Double anions
mp-390,TiO2,True,False,2.0586,-3.508055451944444,[3.0],,10.1007/s10854-019-02179-y,Double anions
mp-390,TiO2,True,False,2.0586,-3.508055451944444,[3.1],,10.1007/s10854-019-02179-y,Double anions
mp-390,TiO2,True,False,2.0586,-3.508055451944444,[3.2],,10.1007/s10854-019-02199-8,Double anions
mp-390,TiO2,True,False,2.0586,-3.508055451944444,[3.2],,10.1007/s10854-019-02227-7,Double anions
mp-390,TiO2,True,False,2.0586,-3.508055451944444,[3.2],,10.1007/s10854-019-02657-3,Double anions
mp-390,TiO2,True,False,2.0586,-3.508055451944444,[3.08],,10.1007/s10854-020-02965-z,Double anions
mp-390,TiO2,True,False,2.0586,-3.508055451944444,[3.2],,10.1007/s10854-020-03059-6,Double anions
mp-390,TiO2,True,False,2.0586,-3.508055451944444,[3.2],,10.1007/s10854-020-03419-2,Double anions
mp-390,TiO2,True,False,2.0586,-3.508055451944444,[3.0],,10.1007/s10854-020-03499-0,Double anions
mp-390,TiO2,True,False,2.0586,-3.508055451944444,[3.2],,10.1007/s10856-016-5675-8,Double anions
mp-390,TiO2,True,False,2.0586,-3.508055451944444,[3.2],,10.1007/s10876-013-0559-2,Double anions
mp-390,TiO2,True,False,2.0586,-3.508055451944444,[3.2],,10.1007/s10904-018-0798-7,Double anions
mp-390,TiO2,True,False,2.0586,-3.508055451944444,[3.2],,10.1007/s10904-018-0806-y,Double anions
mp-390,TiO2,True,False,2.0586,-3.508055451944444,[3.33],,10.1007/s10904-019-01304-y,Double anions
mp-390,TiO2,True,False,2.0586,-3.508055451944444,[2.42],,10.1007/s10904-019-01304-y,Double anions
mp-390,TiO2,True,False,2.0586,-3.508055451944444,[3.28],,10.1007/s10904-020-01644-0,Double anions
mp-390,TiO2,True,False,2.0586,-3.508055451944444,[3.0],,10.1007/s10904-020-01668-6,Double anions
mp-390,TiO2,True,False,2.0586,-3.508055451944444,[3.0],,10.1007/s10904-020-01810-4,Double anions
mp-390,TiO2,True,False,2.0586,-3.508055451944444,[3.2],,10.1007/s10924-016-0899-8,Double anions
mp-390,TiO2,True,False,2.0586,-3.508055451944444,[3.2],,10.1007/s10934-015-9925-9,Double anions
mp-390,TiO2,True,False,2.0586,-3.508055451944444,[3.02],,10.1007/s10934-015-9925-9,Double anions
mp-390,TiO2,True,False,2.0586,-3.508055451944444,[3.2],,10.1007/s10934-016-0250-8,Double anions
mp-390,TiO2,True,False,2.0586,-3.508055451944444,[3.2],,10.1007/s10934-019-00815-w,Double anions
mp-390,TiO2,True,False,2.0586,-3.508055451944444,[3.2],,10.1007/s10948-014-2864-x,Double anions
mp-390,TiO2,True,False,2.0586,-3.508055451944444,[3.2],,10.1007/s10965-018-1692-2,Double anions
mp-390,TiO2,True,False,2.0586,-3.508055451944444,[3.2],,10.1007/s10971-007-1617-8,Double anions
mp-390,TiO2,True,False,2.0586,-3.508055451944444,[3.2],,10.1007/s10971-009-2144-6,Double anions
mp-390,TiO2,True,False,2.0586,-3.508055451944444,[3.2],,10.1007/s10971-010-2326-2,Double anions
mp-390,TiO2,True,False,2.0586,-3.508055451944444,[3.18],,10.1007/s10971-010-2393-4,Double anions
mp-390,TiO2,True,False,2.0586,-3.508055451944444,[3.2],,10.1007/s10971-011-2515-7,Double anions
mp-390,TiO2,True,False,2.0586,-3.508055451944444,[3.2],,10.1007/s10971-011-2607-4,Double anions
mp-390,TiO2,True,False,2.0586,-3.508055451944444,[3.3],,10.1007/s10971-012-2733-7,Double anions
mp-390,TiO2,True,False,2.0586,-3.508055451944444,[3.2],,10.1007/s10971-012-2802-y,Double anions
mp-390,TiO2,True,False,2.0586,-3.508055451944444,[3.2],,10.1007/s10971-012-2890-8,Double anions
mp-390,TiO2,True,False,2.0586,-3.508055451944444,[3.25],,10.1007/s10971-013-3082-x,Double anions
mp-390,TiO2,True,False,2.0586,-3.508055451944444,[3.2],,10.1007/s10971-013-3093-7,Double anions
mp-390,TiO2,True,False,2.0586,-3.508055451944444,[2.94],,10.1007/s10971-014-3341-5,Double anions
mp-390,TiO2,True,False,2.0586,-3.508055451944444,[3.2],,10.1007/s10971-014-3541-z,Double anions
mp-390,TiO2,True,False,2.0586,-3.508055451944444,[3.2],,10.1007/s10971-015-3685-5,Double anions
mp-390,TiO2,True,False,2.0586,-3.508055451944444,[3.2],,10.1007/s10971-015-3745-x,Double anions
mp-390,TiO2,True,False,2.0586,-3.508055451944444,[3.2],,10.1007/s10971-016-4261-3,Double anions
mp-390,TiO2,True,False,2.0586,-3.508055451944444,[3.23],,10.1007/s10971-018-4797-5,Double anions
mp-390,TiO2,True,False,2.0586,-3.508055451944444,[3.2],,10.1007/s10971-018-4867-8,Double anions
mp-390,TiO2,True,False,2.0586,-3.508055451944444,[3.2],,10.1007/s10971-019-05080-6,Double anions
mp-390,TiO2,True,False,2.0586,-3.508055451944444,[3.1],,10.1007/s10971-020-05380-2,Double anions
mp-390,TiO2,True,False,2.0586,-3.508055451944444,[3.2],,10.1007/s10973-011-1687-2,Double anions
mp-390,TiO2,True,False,2.0586,-3.508055451944444,[3.16],,10.1007/s11051-010-9880-y,Double anions
mp-390,TiO2,True,False,2.0586,-3.508055451944444,[3.2],,10.1007/s11051-011-0589-3,Double anions
mp-390,TiO2,True,False,2.0586,-3.508055451944444,[2.22],,10.1007/s11051-012-0937-y,Double anions
mp-390,TiO2,True,False,2.0586,-3.508055451944444,[2.28],,10.1007/s11051-012-0937-y,Double anions
mp-390,TiO2,True,False,2.0586,-3.508055451944444,[3.2],,10.1007/s11051-015-3124-0,Double anions
mp-390,TiO2,True,False,2.0586,-3.508055451944444,[3.0],,10.1007/s11051-017-3894-7,Double anions
mp-390,TiO2,True,False,2.0586,-3.508055451944444,[3.2],,10.1007/s11051-020-04877-9,Double anions
mp-390,TiO2,True,False,2.0586,-3.508055451944444,[3.17],,10.1007/s11082-014-0081-2,Double anions
mp-390,TiO2,True,False,2.0586,-3.508055451944444,[3.2],,10.1007/s11082-016-0851-0,Double anions
mp-390,TiO2,True,False,2.0586,-3.508055451944444,[3.25],,10.1007/s11082-016-0851-0,Double anions
mp-390,TiO2,True,False,2.0586,-3.508055451944444,[3.0],,10.1007/s11082-017-0932-8,Double anions
mp-390,TiO2,True,False,2.0586,-3.508055451944444,[3.2],,10.1007/s11082-017-1064-x,Double anions
mp-390,TiO2,True,False,2.0586,-3.508055451944444,[2.96],475–1075,10.1007/s11082-017-1064-x,Double anions
mp-390,TiO2,True,False,2.0586,-3.508055451944444,[3.2],,10.1007/s11090-020-10136-5,Double anions
mp-390,TiO2,True,False,2.0586,-3.508055451944444,[3.2],,10.1007/s11144-011-0291-6,Double anions
mp-390,TiO2,True,False,2.0586,-3.508055451944444,[2.97],,10.1007/s11144-014-0708-0,Double anions
mp-390,TiO2,True,False,2.0586,-3.508055451944444,[3.03],,10.1007/s11144-014-0708-0,Double anions
mp-390,TiO2,True,False,2.0586,-3.508055451944444,[3.2],,10.1007/s11144-019-01701-x,Double anions
mp-390,TiO2,True,False,2.0586,-3.508055451944444,[3.0],,10.1007/s11164-009-0066-0,Double anions
mp-390,TiO2,True,False,2.0586,-3.508055451944444,[2.7],,10.1007/s11164-010-0125-6,Double anions
mp-390,TiO2,True,False,2.0586,-3.508055451944444,[3.2],,10.1007/s11164-010-0125-6,Double anions
mp-390,TiO2,True,False,2.0586,-3.508055451944444,[1.4],,10.1007/s11164-010-0125-6,Double anions
mp-390,TiO2,True,False,2.0586,-3.508055451944444,[2.56],,10.1007/s11164-011-0315-x,Double anions
mp-390,TiO2,True,False,2.0586,-3.508055451944444,[3.2],,10.1007/s11164-011-0315-x,Double anions
mp-390,TiO2,True,False,2.0586,-3.508055451944444,[3.2],,10.1007/s11164-011-0475-8,Double anions
mp-390,TiO2,True,False,2.0586,-3.508055451944444,[3.2],,10.1007/s11164-012-0516-y,Double anions
mp-390,TiO2,True,False,2.0586,-3.508055451944444,[3.1],,10.1007/s11164-012-0516-y,Double anions
mp-390,TiO2,True,False,2.0586,-3.508055451944444,[3.24],,10.1007/s11164-012-0700-0,Double anions
mp-390,TiO2,True,False,2.0586,-3.508055451944444,[3.2],,10.1007/s11164-015-1953-1,Double anions
mp-390,TiO2,True,False,2.0586,-3.508055451944444,[3.2],,10.1007/s11164-015-2044-z,Double anions
mp-390,TiO2,True,False,2.0586,-3.508055451944444,[3.2],,10.1007/s11164-015-2161-8,Double anions
mp-390,TiO2,True,False,2.0586,-3.508055451944444,[3.12],,10.1007/s11164-015-2244-6,Double anions
mp-390,TiO2,True,False,2.0586,-3.508055451944444,[2.8],,10.1007/s11164-015-2244-6,Double anions
mp-390,TiO2,True,False,2.0586,-3.508055451944444,[3.2],,10.1007/s11164-016-2461-7,Double anions
mp-390,TiO2,True,False,2.0586,-3.508055451944444,[3.22],,10.1007/s11164-016-2461-7,Double anions
mp-390,TiO2,True,False,2.0586,-3.508055451944444,[3.2],,10.1007/s11164-016-2570-3,Double anions
mp-390,TiO2,True,False,2.0586,-3.508055451944444,[3.08],,10.1007/s11164-017-2992-6,Double anions
mp-390,TiO2,True,False,2.0586,-3.508055451944444,[3.2],,10.1007/s11164-017-3037-x,Double anions
mp-390,TiO2,True,False,2.0586,-3.508055451944444,[3.2],,10.1007/s11164-017-3047-8,Double anions
mp-390,TiO2,True,False,2.0586,-3.508055451944444,[3.2],,10.1007/s11164-017-3193-z,Double anions
mp-390,TiO2,True,False,2.0586,-3.508055451944444,[3.2],,10.1007/s11164-017-3249-0,Double anions
mp-390,TiO2,True,False,2.0586,-3.508055451944444,[3.1],,10.1007/s11164-018-3548-0,Double anions
mp-390,TiO2,True,False,2.0586,-3.508055451944444,[3.2],,10.1007/s11164-020-04222-8,Double anions
mp-390,TiO2,True,False,2.0586,-3.508055451944444,[3.2],,10.1007/s11224-017-0920-4,Double anions