mpids,formula,is_stable,theoretical,band_gap,formation_energy_per_atom,Value,Temperature_raw_value,DOI,compound_type
mp-2383161,WO3,True,True,1.3585,-2.190860606562499,[2.7],,10.1039/c3ta13239k,Oxides
mp-2383161,WO3,True,True,1.3585,-2.190860606562499,[2.36],,10.1039/c3ta13793g,Oxides
mp-2383161,WO3,True,True,1.3585,-2.190860606562499,[2.0],,10.1039/c3ta13912c,Oxides
mp-2383161,WO3,True,True,1.3585,-2.190860606562499,[2.81],,10.1039/c4dt02953d,Oxides
mp-2383161,WO3,True,True,1.3585,-2.190860606562499,[0.16],,10.1039/c4mh00176a,Oxides
mp-2383161,WO3,True,True,1.3585,-2.190860606562499,[2.62],,10.1039/c4nr01181c,Oxides
mp-2383161,WO3,True,True,1.3585,-2.190860606562499,[2.65],,10.1039/c4nr03008g,Oxides
mp-2383161,WO3,True,True,1.3585,-2.190860606562499,[2.7],,10.1039/c4nr07024k,Oxides
mp-2383161,WO3,True,True,1.3585,-2.190860606562499,[2.69],,10.1039/c4nr07024k,Oxides
mp-2383161,WO3,True,True,1.3585,-2.190860606562499,[1.45],,10.1039/c4nr07024k,Oxides
mp-2383161,WO3,True,True,1.3585,-2.190860606562499,[2.73],,10.1039/c4ra01376j,Oxides
mp-2383161,WO3,True,True,1.3585,-2.190860606562499,[2.98],,10.1039/c4ra13210f,Oxides
mp-2383161,WO3,True,True,1.3585,-2.190860606562499,[2.78],,10.1039/c4ra13210f,Oxides
mp-2383161,WO3,True,True,1.3585,-2.190860606562499,[2.7],,10.1039/c4ra13210f,Oxides
mp-2383161,WO3,True,True,1.3585,-2.190860606562499,[2.2],1100,10.1039/c4ra13257b,Oxides
mp-2383161,WO3,True,True,1.3585,-2.190860606562499,[2.7],,10.1039/c4ta07213h,Oxides
mp-2383161,WO3,True,True,1.3585,-2.190860606562499,[2.8],,10.1039/c5ce00900f,Oxides
mp-2383161,WO3,True,True,1.3585,-2.190860606562499,[2.7],,10.1039/c5cp06807j,Oxides
mp-2383161,WO3,True,True,1.3585,-2.190860606562499,[2.6],,10.1039/c5cp07589k,Oxides
mp-2383161,WO3,True,True,1.3585,-2.190860606562499,[3.3],,10.1039/c5nr09111j,Oxides
mp-2383161,WO3,True,True,1.3585,-2.190860606562499,[2.67],,10.1039/c5ra03918e,Oxides
mp-2383161,WO3,True,True,1.3585,-2.190860606562499,[3.17],,10.1039/c5ra10479c,Oxides
mp-2383161,WO3,True,True,1.3585,-2.190860606562499,[2.65],,10.1039/c5ra11464k,Oxides
mp-2383161,WO3,True,True,1.3585,-2.190860606562499,[2.6],,10.1039/c5ra15167h,Oxides
mp-2383161,WO3,True,True,1.3585,-2.190860606562499,[2.62],,10.1039/c5ra15167h,Oxides
mp-2383161,WO3,True,True,1.3585,-2.190860606562499,[2.6],,10.1039/c5ra17098b,Oxides
mp-2383161,WO3,True,True,1.3585,-2.190860606562499,[2.63],,10.1039/c5ra19384b,Oxides
mp-2383161,WO3,True,True,1.3585,-2.190860606562499,[2.6],,10.1039/c5ra23765c,Oxides
mp-2383161,WO3,True,True,1.3585,-2.190860606562499,[2.6],,10.1039/c5ra24575c,Oxides
mp-2383161,WO3,True,True,1.3585,-2.190860606562499,[2.7],,10.1039/c5ta00257e,Oxides
mp-2383161,WO3,True,True,1.3585,-2.190860606562499,[2.63],,10.1039/c5ta01592h,Oxides
mp-2383161,WO3,True,True,1.3585,-2.190860606562499,[2.66],,10.1039/c6ce00824k,Oxides
mp-2383161,WO3,True,True,1.3585,-2.190860606562499,[2.64],,10.1039/c6ce01646d,Oxides
mp-2383161,WO3,True,True,1.3585,-2.190860606562499,[2.62],,10.1039/c6cp08066a,Oxides
mp-2383161,WO3,True,True,1.3585,-2.190860606562499,[2.7],,10.1039/c6cp08066a,Oxides
mp-2383161,WO3,True,True,1.3585,-2.190860606562499,[2.52],,10.1039/c6cp08199a,Oxides
mp-2383161,WO3,True,True,1.3585,-2.190860606562499,[2.5],,10.1039/c6cs00918b,Oxides
mp-2383161,WO3,True,True,1.3585,-2.190860606562499,[2.7],,10.1039/c6cy01666a,Oxides
mp-2383161,WO3,True,True,1.3585,-2.190860606562499,[0.0],,10.1039/c6nr02949c,Oxides
mp-2383161,WO3,True,True,1.3585,-2.190860606562499,[2.7],,10.1039/c6nr02949c,Oxides
mp-2383161,WO3,True,True,1.3585,-2.190860606562499,[2.39],,10.1039/c6qm00009f,Oxides
mp-2383161,WO3,True,True,1.3585,-2.190860606562499,[2.68],,10.1039/c6ra07629g,Oxides
mp-2383161,WO3,True,True,1.3585,-2.190860606562499,[2.8],,10.1039/c6ra18649a,Oxides
mp-2383161,WO3,True,True,1.3585,-2.190860606562499,[2.7],,10.1039/c6ra23591c,Oxides
mp-2383161,WO3,True,True,1.3585,-2.190860606562499,[2.33],,10.1039/c6ra25146c,Oxides
mp-2383161,WO3,True,True,1.3585,-2.190860606562499,[2.8],,10.1039/c6ta00700g,Oxides
mp-2383161,WO3,True,True,1.3585,-2.190860606562499,[2.7],,10.1039/c6ta07592d,Oxides
mp-2383161,WO3,True,True,1.3585,-2.190860606562499,[2.6],,10.1039/c7cs00500h,Oxides
mp-2383161,WO3,True,True,1.3585,-2.190860606562499,[2.43],,10.1039/c7cy00976c,Oxides
mp-2383161,WO3,True,True,1.3585,-2.190860606562499,[2.75],,10.1039/c7dt03003g,Oxides
mp-2383161,WO3,True,True,1.3585,-2.190860606562499,[0.2],,10.1039/c7dt03003g,Oxides
mp-2383161,WO3,True,True,1.3585,-2.190860606562499,[2.1],,10.1039/c7ee03165c,Oxides
mp-2383161,WO3,True,True,1.3585,-2.190860606562499,[0.03],,10.1039/c7en00713b,Oxides
mp-2383161,WO3,True,True,1.3585,-2.190860606562499,[2.8],,10.1039/c7en01031a,Oxides
mp-2383161,WO3,True,True,1.3585,-2.190860606562499,[2.9],,10.1039/c7ra00730b,Oxides
mp-2383161,WO3,True,True,1.3585,-2.190860606562499,[2.6],,10.1039/c7ta03878j,Oxides
mp-2383161,WO3,True,True,1.3585,-2.190860606562499,[2.64],,10.1039/c8cy02375a,Oxides
mp-2383161,WO3,True,True,1.3585,-2.190860606562499,[2.45],,10.1039/c8qi01359d,Oxides
mp-2383161,WO3,True,True,1.3585,-2.190860606562499,[3.31],,10.1039/c8qi01359d,Oxides
mp-2383161,WO3,True,True,1.3585,-2.190860606562499,[2.7],,10.1039/c8ta02452a,Oxides
mp-2383161,WO3,True,True,1.3585,-2.190860606562499,[2.74],,10.1039/c8ta09446b,Oxides
mp-2383161,WO3,True,True,1.3585,-2.190860606562499,[2.7],,10.1039/c9cy02511a,Oxides
mp-2383161,WO3,True,True,1.3585,-2.190860606562499,[2.6],,10.1039/c9en00528e,Oxides
mp-2383161,WO3,True,True,1.3585,-2.190860606562499,[2.59],,10.1039/c9nj02747e,Oxides
mp-2383161,WO3,True,True,1.3585,-2.190860606562499,[2.25],,10.1039/c9nj02747e,Oxides
mp-2383161,WO3,True,True,1.3585,-2.190860606562499,[3.1],,10.1039/c9nj04286e,Oxides
mp-2383161,WO3,True,True,1.3585,-2.190860606562499,[2.31],,10.1039/c9nj04584h,Oxides
mp-2383161,WO3,True,True,1.3585,-2.190860606562499,[2.7],,10.1039/c9nj05801j,Oxides
mp-2383161,WO3,True,True,1.3585,-2.190860606562499,[2.63],,10.1039/c9nj06118e,Oxides
mp-2383161,WO3,True,True,1.3585,-2.190860606562499,[2.6],,10.1039/c9pp00163h,Oxides
mp-2383161,WO3,True,True,1.3585,-2.190860606562499,[3.0],,10.1039/c9qi01516g,Oxides
mp-2383161,WO3,True,True,1.3585,-2.190860606562499,[6.59],,10.1039/c9qi01516g,Oxides
mp-2383161,WO3,True,True,1.3585,-2.190860606562499,[2.6],300,10.1039/c9qi01516g,Oxides
mp-2383161,WO3,True,True,1.3585,-2.190860606562499,[3.7],,10.1039/c9qi01516g,Oxides
mp-2383161,WO3,True,True,1.3585,-2.190860606562499,[2.44],,10.1039/c9qi01516g,Oxides
mp-2383161,WO3,True,True,1.3585,-2.190860606562499,[5.5],,10.1039/c9ra01901d,Oxides
mp-2383161,WO3,True,True,1.3585,-2.190860606562499,[2.74],,10.1039/c9se00719a,Oxides
mp-2383161,WO3,True,True,1.3585,-2.190860606562499,[2.7],,10.1039/c9se01158g,Oxides
mp-2383161,WO3,True,True,1.3585,-2.190860606562499,[2.91],,10.1039/c9tc01544b,Oxides
mp-2383161,WO3,True,True,1.3585,-2.190860606562499,[2.7],,10.1039/d0ce00966k,Oxides
mp-2383161,WO3,True,True,1.3585,-2.190860606562499,[2.88],,10.1039/d0nr02184a,Oxides
mp-2383161,WO3,True,True,1.3585,-2.190860606562499,[2.8],,10.1039/d0se00034e,Oxides
mp-2383161,WO3,True,True,1.3585,-2.190860606562499,[2.4],,10.1039/d0ta05834c,Oxides
mp-2383161,WO3,True,True,1.3585,-2.190860606562499,[2.7],,10.1039/b107673f,Oxides
mp-2383161,WO3,True,True,1.3585,-2.190860606562499,[2.8],,10.1039/b303800a,Oxides
mp-2383161,WO3,True,True,1.3585,-2.190860606562499,[2.7],,10.1039/b310428a,Oxides
mp-2383161,WO3,True,True,1.3585,-2.190860606562499,[2.8],,10.1039/b821209k,Oxides
mp-2383161,WO3,True,True,1.3585,-2.190860606562499,[2.62],,10.1039/c0jm04379f,Oxides
mp-2383161,WO3,True,True,1.3585,-2.190860606562499,[3.3],,10.1039/c0jm04557h,Oxides
mp-2383161,WO3,True,True,1.3585,-2.190860606562499,[2.6],,10.1039/c2cs35260e,Oxides
mp-2383161,WO3,True,True,1.3585,-2.190860606562499,[2.7],,10.1039/c2jm16178h,Oxides
mp-2383161,WO3,True,True,1.3585,-2.190860606562499,[2.71],,10.1039/c2jm16178h,Oxides
mp-2383161,WO3,True,True,1.3585,-2.190860606562499,[2.57],,10.1039/c2nr31030a,Oxides
mp-2383161,WO3,True,True,1.3585,-2.190860606562499,[2.73],,10.1039/c2nr31203d,Oxides
mp-2383161,WO3,True,True,1.3585,-2.190860606562499,[3.4],,10.1039/c3ta13715e,Oxides
mp-2383161,WO3,True,True,1.3585,-2.190860606562499,[2.7],,10.1039/c4fd00059e,Oxides
mp-2383161,WO3,True,True,1.3585,-2.190860606562499,[3.2],,10.1039/c4ra07498j,Oxides
mp-2383161,WO3,True,True,1.3585,-2.190860606562499,[3.2],,10.1039/c4ta04883k,Oxides
mp-2383161,WO3,True,True,1.3585,-2.190860606562499,[2.8],,10.1039/c4tc02284j,Oxides
mp-2383161,WO3,True,True,1.3585,-2.190860606562499,[2.8],,10.1039/c5cy00379b,Oxides
mp-2383161,WO3,True,True,1.3585,-2.190860606562499,[2.7],,10.1039/c5nr09210h,Oxides
mp-2383161,WO3,True,True,1.3585,-2.190860606562499,[2.4],,10.1039/c5nr09210h,Oxides
mp-2383161,WO3,True,True,1.3585,-2.190860606562499,[2.37],,10.1039/c5nr09210h,Oxides
mp-2383161,WO3,True,True,1.3585,-2.190860606562499,[2.8],,10.1039/c5ra02536b,Oxides
mp-2383161,WO3,True,True,1.3585,-2.190860606562499,[2.12],,10.1039/c5ra02536b,Oxides
mp-2383161,WO3,True,True,1.3585,-2.190860606562499,[2.6],,10.1039/c5ra06241a,Oxides
mp-2383161,WO3,True,True,1.3585,-2.190860606562499,[2.6],,10.1039/c5ta06950e,Oxides
mp-2383161,WO3,True,True,1.3585,-2.190860606562499,[2.62],,10.1039/c5tc01411e,Oxides
mp-2383161,WO3,True,True,1.3585,-2.190860606562499,[2.8],,10.1039/c6ee01003b,Oxides
mp-2383161,WO3,True,True,1.3585,-2.190860606562499,[2.62],,10.1039/c6ra23504b,Oxides
mp-2383161,WO3,True,True,1.3585,-2.190860606562499,[2.6],,10.1039/c6ra26267h,Oxides
mp-2383161,WO3,True,True,1.3585,-2.190860606562499,[2.6],,10.1039/c6ra26916h,Oxides
mp-2383161,WO3,True,True,1.3585,-2.190860606562499,[2.7],,10.1039/c7ra05342h,Oxides
mp-2383161,WO3,True,True,1.3585,-2.190860606562499,[3.34],,10.1039/c7ta08415c,Oxides
mp-2383161,WO3,True,True,1.3585,-2.190860606562499,[2.62],,10.1039/c7tc01616f,Oxides
mp-2383161,WO3,True,True,1.3585,-2.190860606562499,[2.8],,10.1039/c8nr02466a,Oxides
mp-2383161,WO3,True,True,1.3585,-2.190860606562499,[2.6],,10.1039/c8ta00796a,Oxides
mp-2383161,WO3,True,True,1.3585,-2.190860606562499,[2.62],,10.1039/c8tc06309e,Oxides
mp-2383161,WO3,True,True,1.3585,-2.190860606562499,[3.0],,10.1039/c9ce00779b,Oxides
mp-2383161,WO3,True,True,1.3585,-2.190860606562499,[2.2],,10.1039/d0ra05230b,Oxides
mp-2383161,WO3,True,True,1.3585,-2.190860606562499,[0.74],,10.1039/d0ra05230b,Oxides
mp-2383161,WO3,True,True,1.3585,-2.190860606562499,[2.8],,10.1039/b514606b,Oxides
mp-2383161,WO3,True,True,1.3585,-2.190860606562499,[2.6],,10.1039/b807629d,Oxides
mp-2383161,WO3,True,True,1.3585,-2.190860606562499,[2.6],,10.1039/b821991e,Oxides
mp-2383161,WO3,True,True,1.3585,-2.190860606562499,[0.3],,10.1039/b821991e,Oxides
mp-2383161,WO3,True,True,1.3585,-2.190860606562499,[2.6],,10.1039/b915244j,Oxides
mp-2383161,WO3,True,True,1.3585,-2.190860606562499,[2.93],,10.1039/c0cc00540a,Oxides
mp-2383161,WO3,True,True,1.3585,-2.190860606562499,[3.22],,10.1039/c0cc04770h,Oxides
mp-2383161,WO3,True,True,1.3585,-2.190860606562499,[2.62],,10.1039/c0jm01972k,Oxides
mp-2383161,WO3,True,True,1.3585,-2.190860606562499,[3.2],,10.1039/c0jm03773g,Oxides
mp-2383161,WO3,True,True,1.3585,-2.190860606562499,[2.6],,10.1039/c1cp20412b,Oxides
mp-2383161,WO3,True,True,1.3585,-2.190860606562499,[2.32],,10.1039/c2cp40991g,Oxides
mp-2383161,WO3,True,True,1.3585,-2.190860606562499,[3.16],,10.1039/c2jm32478d,Oxides
mp-2383161,WO3,True,True,1.3585,-2.190860606562499,[2.7],,10.1039/c2nr11846g,Oxides
mp-2383161,WO3,True,True,1.3585,-2.190860606562499,[2.55],,10.1039/c3ra40550h,Oxides
mp-2383161,WO3,True,True,1.3585,-2.190860606562499,[2.6],,10.1039/c3ta01444d,Oxides
mp-2383161,WO3,True,True,1.3585,-2.190860606562499,[2.7],,10.1039/c4cs00031e,Oxides
mp-2383161,WO3,True,True,1.3585,-2.190860606562499,[2.6],,10.1039/c5cc05211d,Oxides
mp-2383161,WO3,True,True,1.3585,-2.190860606562499,[2.72],,10.1039/c5ra18279d,Oxides
mp-2383161,WO3,True,True,1.3585,-2.190860606562499,[2.7],,10.1039/c5ta00823a,Oxides
mp-2383161,WO3,True,True,1.3585,-2.190860606562499,[2.7],,10.1039/c6ra09195d,Oxides
mp-2383161,WO3,True,True,1.3585,-2.190860606562499,[2.6],,10.1039/c6ta04291k,Oxides
mp-2383161,WO3,True,True,1.3585,-2.190860606562499,[2.7],,10.1039/c7ce02148h,Oxides
mp-2383161,WO3,True,True,1.3585,-2.190860606562499,[2.7],,10.1039/c7ra05341j,Oxides
mp-2383161,WO3,True,True,1.3585,-2.190860606562499,[2.7],,10.1039/c8cy01795f,Oxides
mp-2383161,WO3,True,True,1.3585,-2.190860606562499,[1.2],,10.1039/c8nr08771g,Oxides
mp-2383161,WO3,True,True,1.3585,-2.190860606562499,[2.7],,10.1039/c8ra10060h,Oxides
mp-2383161,WO3,True,True,1.3585,-2.190860606562499,[2.8],,10.1039/c8ra10060h,Oxides
mp-2383161,WO3,True,True,1.3585,-2.190860606562499,[1.9],,10.1039/c9ta10629d,Oxides
mp-2383161,WO3,True,True,1.3585,-2.190860606562499,[3.6],,10.1039/d0cp01974g,Oxides
mp-2383161,WO3,True,True,1.3585,-2.190860606562499,[2.41],,10.1039/d0nj04021e,Oxides
mp-2383161,WO3,True,True,1.3585,-2.190860606562499,[1.4],,10.1039/d0ta08659b,Oxides
mp-2383161,WO3,True,True,1.3585,-2.190860606562499,[2.7],,10.1039/c5ta04747a,Oxides
mp-2383161,WO3,True,True,1.3585,-2.190860606562499,[2.7],,10.1039/c8ta02916d,Oxides
mp-2383161,WO3,True,True,1.3585,-2.190860606562499,[4.5],,10.1039/c9se01282f,Oxides
mp-2383161,WO3,True,True,1.3585,-2.190860606562499,[2.6],,10.1039/c2jm33199c,Oxides
mp-2383161,WO3,True,True,1.3585,-2.190860606562499,[2.39],,10.1039/c4ta06883a,Oxides
mp-2383161,WO3,True,True,1.3585,-2.190860606562499,[2.7],,10.1039/c7cy01399j,Oxides
mp-2383161,WO3,True,True,1.3585,-2.190860606562499,[2.87],,10.1039/c9ce01392j,Oxides
mp-2383161,WO3,True,True,1.3585,-2.190860606562499,[3.39],,10.1007/s00339-010-5681-5,Oxides
mp-2383161,WO3,True,True,1.3585,-2.190860606562499,[0.7],,10.1007/s00339-018-1653-y,Oxides
mp-2383161,WO3,True,True,1.3585,-2.190860606562499,[2.6],,10.1007/s10562-007-9188-4,Oxides
mp-2383161,WO3,True,True,1.3585,-2.190860606562499,[2.8],,10.1007/s10562-012-0785-5,Oxides
mp-2383161,WO3,True,True,1.3585,-2.190860606562499,[2.8],,10.1007/s10563-019-09289-x,Oxides
mp-2383161,WO3,True,True,1.3585,-2.190860606562499,[2.82],,10.1007/s10563-019-09289-x,Oxides
mp-2383161,WO3,True,True,1.3585,-2.190860606562499,[2.8],,10.1007/s10800-020-01407-2,Oxides
mp-2383161,WO3,True,True,1.3585,-2.190860606562499,[2.835],,10.1007/s10853-017-1633-1,Oxides
mp-2383161,WO3,True,True,1.3585,-2.190860606562499,[2.7],,10.1007/s10853-018-2856-5,Oxides
mp-2383161,WO3,True,True,1.3585,-2.190860606562499,[2.61],,10.1007/s10853-018-2856-5,Oxides
mp-2383161,WO3,True,True,1.3585,-2.190860606562499,[2.8],,10.1007/s10854-015-3508-z,Oxides
mp-2383161,WO3,True,True,1.3585,-2.190860606562499,[2.66],300,10.1007/s10854-015-3934-y,Oxides
mp-2383161,WO3,True,True,1.3585,-2.190860606562499,[2.8],,10.1007/s10854-015-3934-y,Oxides
mp-2383161,WO3,True,True,1.3585,-2.190860606562499,[2.66],,10.1007/s10854-015-3934-y,Oxides
mp-2383161,WO3,True,True,1.3585,-2.190860606562499,[2.63],,10.1007/s10854-016-6013-0,Oxides
mp-2383161,WO3,True,True,1.3585,-2.190860606562499,[2.7],,10.1007/s10854-018-00602-4,Oxides
mp-2383161,WO3,True,True,1.3585,-2.190860606562499,[2.6],,10.1007/s10904-017-0771-x,Oxides
mp-2383161,WO3,True,True,1.3585,-2.190860606562499,[3.0],,10.1007/s10934-015-0117-4,Oxides
mp-2383161,WO3,True,True,1.3585,-2.190860606562499,[1.85],,10.1007/s11244-013-0147-6,Oxides
mp-2383161,WO3,True,True,1.3585,-2.190860606562499,[3.0],,10.1007/s11244-013-0147-6,Oxides
mp-2383161,WO3,True,True,1.3585,-2.190860606562499,[3.0],,10.1007/s11244-020-01325-9,Oxides
mp-2383161,WO3,True,True,1.3585,-2.190860606562499,[2.7],,10.1007/s11665-015-1565-3,Oxides
mp-2383161,WO3,True,True,1.3585,-2.190860606562499,[2.66],,10.1007/s12039-018-1588-z,Oxides
mp-2383161,WO3,True,True,1.3585,-2.190860606562499,[2.72],,10.1007/s12039-018-1588-z,Oxides
mp-2383161,WO3,True,True,1.3585,-2.190860606562499,[2.78],,10.1007/s12039-018-1588-z,Oxides
mp-2383161,WO3,True,True,1.3585,-2.190860606562499,[2.65],,10.1038/s41598-020-61363-x,Oxides
mp-2383161,WO3,True,True,1.3585,-2.190860606562499,[1.85],,10.1007/s00339-016-0403-2,Oxides
mp-2383161,WO3,True,True,1.3585,-2.190860606562499,[2.6],,10.1007/s10008-008-0565-8,Oxides
mp-2383161,WO3,True,True,1.3585,-2.190860606562499,[2.99],,10.1007/s10008-018-3911-5,Oxides
mp-2383161,WO3,True,True,1.3585,-2.190860606562499,[3.5],,10.1007/s10854-015-4190-x,Oxides
mp-2383161,WO3,True,True,1.3585,-2.190860606562499,[2.8],,10.1007/s10854-016-4471-z,Oxides
mp-2383161,WO3,True,True,1.3585,-2.190860606562499,[2.62],,10.1007/s10854-017-6821-x,Oxides
mp-2383161,WO3,True,True,1.3585,-2.190860606562499,[3.0],,10.1007/s10854-018-8844-3,Oxides
mp-2383161,WO3,True,True,1.3585,-2.190860606562499,[2.8],,10.1007/s10854-018-8844-3,Oxides
mp-2383161,WO3,True,True,1.3585,-2.190860606562499,[3.2],400,10.1007/s10904-019-01285-y,Oxides
mp-2383161,WO3,True,True,1.3585,-2.190860606562499,[2.8],,10.1007/s10948-017-4184-4,Oxides
mp-2383161,WO3,True,True,1.3585,-2.190860606562499,[2.8],,10.1007/s10971-010-2322-6,Oxides
mp-2383161,WO3,True,True,1.3585,-2.190860606562499,[2.8],,10.1007/s11771-012-1292-y,Oxides
mp-2383161,WO3,True,True,1.3585,-2.190860606562499,[2.82],,10.1007/s40820-019-0345-2,Oxides
mp-2383161,WO3,True,True,1.3585,-2.190860606562499,[2.8],,10.1007/s40820-019-0345-2,Oxides
mp-2383161,WO3,True,True,1.3585,-2.190860606562499,[2.5],,10.1038/s41598-017-01244-y,Oxides
mp-2383161,WO3,True,True,1.3585,-2.190860606562499,[2.8],,10.1186/s11671-015-0745-2,Oxides
mp-2383161,WO3,True,True,1.3585,-2.190860606562499,[0.27],,10.1007/s00214-011-0996-7,Oxides
mp-2383161,WO3,True,True,1.3585,-2.190860606562499,[2.6],,10.1007/s00339-013-8148-7,Oxides
mp-2383161,WO3,True,True,1.3585,-2.190860606562499,[3.1],500,10.1007/s00339-013-8148-7,Oxides
mp-2383161,WO3,True,True,1.3585,-2.190860606562499,[2.9],,10.1007/s00339-018-2096-1,Oxides
mp-2383161,WO3,True,True,1.3585,-2.190860606562499,[3.2],,10.1007/s00339-019-3089-4,Oxides
mp-2383161,WO3,True,True,1.3585,-2.190860606562499,[3.03],,10.1007/s10404-015-1638-5,Oxides
mp-2383161,WO3,True,True,1.3585,-2.190860606562499,[2.6],,10.1007/s10404-015-1638-5,Oxides
mp-2383161,WO3,True,True,1.3585,-2.190860606562499,[2.5],,10.1007/s10853-008-2749-0,Oxides
mp-2383161,WO3,True,True,1.3585,-2.190860606562499,[2.7],,10.1007/s10853-020-04863-5,Oxides
mp-2383161,WO3,True,True,1.3585,-2.190860606562499,[2.83],,10.1007/s10853-020-04863-5,Oxides
mp-2383161,WO3,True,True,1.3585,-2.190860606562499,[2.62],,10.1007/s10854-017-7230-x,Oxides
mp-2383161,WO3,True,True,1.3585,-2.190860606562499,[2.29],,10.1007/s10854-018-9283-x,Oxides
mp-2383161,WO3,True,True,1.3585,-2.190860606562499,[3.0],,10.1007/s10854-020-04444-x,Oxides
mp-2383161,WO3,True,True,1.3585,-2.190860606562499,[2.7],,10.1007/s10876-013-0559-2,Oxides
mp-2383161,WO3,True,True,1.3585,-2.190860606562499,[2.97],,10.1007/s11144-020-01841-5,Oxides
mp-2383161,WO3,True,True,1.3585,-2.190860606562499,[2.8],,10.1007/s11356-016-8157-0,Oxides
mp-2383161,WO3,True,True,1.3585,-2.190860606562499,[2.6],,10.1038/srep23451,Oxides
mp-2383161,WO3,True,True,1.3585,-2.190860606562499,[2.7],,10.1038/srep33715,Oxides
mp-2383161,WO3,True,True,1.3585,-2.190860606562499,[2.63],,10.1038/srep40882,Oxides
mp-2383161,WO3,True,True,1.3585,-2.190860606562499,[3.0],,10.1186/1556-276X-6-459,Oxides
mp-2383161,WO3,True,True,1.3585,-2.190860606562499,[2.6],,10.1186/1556-276X-6-459,Oxides
mp-2383161,WO3,True,True,1.3585,-2.190860606562499,[3.23],,10.1007/s00339-015-9114-3,Oxides
mp-2383161,WO3,True,True,1.3585,-2.190860606562499,[2.8],,10.1007/s00339-016-0145-1,Oxides
mp-2383161,WO3,True,True,1.3585,-2.190860606562499,[2.7],,10.1007/s00339-018-2331-9,Oxides
mp-2383161,WO3,True,True,1.3585,-2.190860606562499,[2.65],,10.1007/s10008-017-3569-4,Oxides
mp-2383161,WO3,True,True,1.3585,-2.190860606562499,[2.3],,10.1007/s10311-015-0538-y,Oxides
mp-2383161,WO3,True,True,1.3585,-2.190860606562499,[2.8],,10.1007/s10562-012-0924-z,Oxides
mp-2383161,WO3,True,True,1.3585,-2.190860606562499,[2.6],,10.1007/s10853-020-04837-7,Oxides