mpids,formula,is_stable,theoretical,band_gap,formation_energy_per_atom,Value,Temperature_raw_value,DOI,compound_type
mp-1195026,Rb2Mg2(WO4)3,False,False,4.355700000000001,-2.417316159210526,[4.17],,10.1002/ejic.201500009,Double anions
mp-1190564,BiPO4,True,False,3.7758,-2.414275679107143,[1.73],,10.1016/j.cej.2013.05.008,Oxides
mp-1190564,BiPO4,True,False,3.7758,-2.414275679107143,[3.7],,10.1016/j.cej.2013.10.076,Oxides
mp-1190564,BiPO4,True,False,3.7758,-2.414275679107143,[3.85],,10.1016/j.cej.2013.10.076,Oxides
mp-1190564,BiPO4,True,False,3.7758,-2.414275679107143,[3.85],,10.1016/j.cej.2014.02.028,Oxides
mp-1190564,BiPO4,True,False,3.7758,-2.414275679107143,[4.25],,10.1016/j.cej.2016.11.045,Oxides
mp-1190564,BiPO4,True,False,3.7758,-2.414275679107143,[4.42],,10.1016/j.cej.2019.123961,Oxides
mp-1190564,BiPO4,True,False,3.7758,-2.414275679107143,[4.1],,10.1016/j.matpr.2020.02.716,Oxides
mp-1190564,BiPO4,True,False,3.7758,-2.414275679107143,[3.9],,10.1039/c1ra00389e,Oxides
mp-1190564,BiPO4,True,False,3.7758,-2.414275679107143,[3.85],,10.1039/c2ra21382f,Oxides
mp-1190564,BiPO4,True,False,3.7758,-2.414275679107143,[3.85],,10.1039/c5ra08421k,Oxides
mp-1190564,BiPO4,True,False,3.7758,-2.414275679107143,[4.11],,10.1039/c5ra08421k,Oxides
mp-1190564,BiPO4,True,False,3.7758,-2.414275679107143,[4.32],,10.1039/c5ra16146k,Oxides
mp-1190564,BiPO4,True,False,3.7758,-2.414275679107143,[4.18],,10.1039/c5ra20189f,Oxides
mp-1190564,BiPO4,True,False,3.7758,-2.414275679107143,[4.27],,10.1039/c8pp00387d,Oxides
mp-1190564,BiPO4,True,False,3.7758,-2.414275679107143,[4.2],,10.1039/c9ra01416k,Oxides
mp-1190564,BiPO4,True,False,3.7758,-2.414275679107143,[4.41],600,10.1039/c9ra02315a,Oxides
mp-1190564,BiPO4,True,False,3.7758,-2.414275679107143,[4.5],,10.1039/c9ra02315a,Oxides
mp-1190564,BiPO4,True,False,3.7758,-2.414275679107143,[3.85],,10.1039/c9ta11368a,Oxides
mp-1190564,BiPO4,True,False,3.7758,-2.414275679107143,[3.85],,10.1039/c2dt11969b,Oxides
mp-1190564,BiPO4,True,False,3.7758,-2.414275679107143,[3.81],,10.1039/c3dt51056e,Oxides
mp-1190564,BiPO4,True,False,3.7758,-2.414275679107143,[3.85],,10.1039/c3dt51056e,Oxides
mp-1190564,BiPO4,True,False,3.7758,-2.414275679107143,[3.35],,10.1039/c3ra44488k,Oxides
mp-1190564,BiPO4,True,False,3.7758,-2.414275679107143,[3.2],,10.1039/c3ra44488k,Oxides
mp-1190564,BiPO4,True,False,3.7758,-2.414275679107143,[2.75],,10.1039/c3ra44488k,Oxides
mp-1190564,BiPO4,True,False,3.7758,-2.414275679107143,[4.6],400,10.1039/c4ta01807a,Oxides
mp-1190564,BiPO4,True,False,3.7758,-2.414275679107143,[3.85],,10.1039/c5ra11948k,Oxides
mp-1190564,BiPO4,True,False,3.7758,-2.414275679107143,[3.45],,10.1039/c5ra11948k,Oxides
mp-1190564,BiPO4,True,False,3.7758,-2.414275679107143,[4.5],,10.1039/c5ra11948k,Oxides
mp-1190564,BiPO4,True,False,3.7758,-2.414275679107143,[2.75],,10.1039/c5ra12479d,Oxides
mp-1190564,BiPO4,True,False,3.7758,-2.414275679107143,[6.85],,10.1039/c5ra12479d,Oxides
mp-1190564,BiPO4,True,False,3.7758,-2.414275679107143,[3.95],,10.1039/c5ra14626g,Oxides
mp-1190564,BiPO4,True,False,3.7758,-2.414275679107143,[4.1],,10.1039/c5ra27328e,Oxides
mp-1190564,BiPO4,True,False,3.7758,-2.414275679107143,[2.25],,10.1039/c6ra06330f,Oxides
mp-1190564,BiPO4,True,False,3.7758,-2.414275679107143,[4.25],,10.1039/c7cy02027a,Oxides
mp-1190564,BiPO4,True,False,3.7758,-2.414275679107143,[2.42],,10.1039/c7nj01968h,Oxides
mp-1190564,BiPO4,True,False,3.7758,-2.414275679107143,[4.27],,10.1039/c8dt02402b,Oxides
mp-1190564,BiPO4,True,False,3.7758,-2.414275679107143,[2.9],,10.1039/c8dt02687d,Oxides
mp-1190564,BiPO4,True,False,3.7758,-2.414275679107143,[4.14],,10.1039/c8nj03284j,Oxides
mp-1190564,BiPO4,True,False,3.7758,-2.414275679107143,[3.85],,10.1039/c9nj04263f,Oxides
mp-1190564,BiPO4,True,False,3.7758,-2.414275679107143,[3.67],,10.1039/c9nj04263f,Oxides
mp-1190564,BiPO4,True,False,3.7758,-2.414275679107143,[2.97],,10.1039/d0nj01329c,Oxides
mp-1190564,BiPO4,True,False,3.7758,-2.414275679107143,[3.85],,10.1039/c4ra05749j,Oxides
mp-1190564,BiPO4,True,False,3.7758,-2.414275679107143,[3.51],,10.1039/c5ra05483d,Oxides
mp-1190564,BiPO4,True,False,3.7758,-2.414275679107143,[4.16],-140,10.1039/c5nr02345a,Oxides
mp-1190564,BiPO4,True,False,3.7758,-2.414275679107143,[4.1],,10.1039/c3ta13841k,Oxides
mp-1190564,BiPO4,True,False,3.7758,-2.414275679107143,[4.13],,10.1007/s10853-020-04529-2,Oxides
mp-1190564,BiPO4,True,False,3.7758,-2.414275679107143,[3.8],,10.1186/s11671-015-1092-z,Oxides
mp-1190564,BiPO4,True,False,3.7758,-2.414275679107143,[1.3],,10.1186/s11671-015-1092-z,Oxides
mp-1190564,BiPO4,True,False,3.7758,-2.414275679107143,[4.45],,10.1007/s13738-020-01904-3,Oxides
mp-1190564,BiPO4,True,False,3.7758,-2.414275679107143,[4.1],,10.1007/s11164-019-03923-z,Oxides
mp-1190564,BiPO4,True,False,3.7758,-2.414275679107143,[3.89],,10.1007/s11164-019-03923-z,Oxides
mp-1190564,BiPO4,True,False,3.7758,-2.414275679107143,[3.853],,10.1007/s11164-019-03923-z,Oxides
mp-1190564,BiPO4,True,False,3.7758,-2.414275679107143,[4.41],,10.1007/s11164-019-03825-0,Oxides
mp-1190564,BiPO4,True,False,3.7758,-2.414275679107143,[3.85],,10.1007/s10854-018-9610-2,Oxides
mp-1190564,BiPO4,True,False,3.7758,-2.414275679107143,[3.24],,10.1007/s10854-018-9610-2,Oxides
mp-1190564,BiPO4,True,False,3.7758,-2.414275679107143,[2.2],,10.1007/s10854-018-9610-2,Oxides
mp-1190564,BiPO4,True,False,3.7758,-2.414275679107143,[4.05],,10.1007/s10854-019-02441-3,Oxides
mp-1190564,BiPO4,True,False,3.7758,-2.414275679107143,[4.06],,10.1007/s11144-016-1007-8,Oxides
mp-1190564,BiPO4,True,False,3.7758,-2.414275679107143,[4.38],,10.1007/s10854-017-6997-0,Oxides
mp-1190564,BiPO4,True,False,3.7758,-2.414275679107143,[2.33],,10.1007/s10854-017-6997-0,Oxides
mp-1190564,BiPO4,True,False,3.7758,-2.414275679107143,[4.41],,10.1007/s10854-020-04609-8,Oxides
mp-1190564,BiPO4,True,False,3.7758,-2.414275679107143,[4.2],,10.1007/s11051-014-2685-7,Oxides
mp-1190564,BiPO4,True,False,3.7758,-2.414275679107143,[4.1],,10.1007/s11164-016-2705-6,Oxides
mp-1190564,BiPO4,True,False,3.7758,-2.414275679107143,[6.85],,10.1007/s11164-016-2705-6,Oxides
mp-1190564,BiPO4,True,False,3.7758,-2.414275679107143,[3.85],,10.1002/1521-3749(200106)627:6<1405::AID-ZAAC1405>3.0.CO;2-D,Oxides
mp-1222376,LiZnBO3,False,True,3.5248,-2.414061129583333,[3.1],,10.1016/j.solidstatesciences.2010.11.029,Oxides
mp-758022,LiCoPO4,True,True,3.2415,-2.404089948282313,[3.4],,10.1039/c1ee02283k,Oxides
mp-14088,Rb2PdF6,True,False,2.2306,-2.402987928888889,[2.67],,10.1016/j.jece.2017.10.010,Double anions
mp-22766,CaIn2O4,True,True,2.020799999999999,-2.392656165476187,[3.9],,10.1016/j.optmat.2006.06.010,Double anions
mp-22766,CaIn2O4,True,True,2.020799999999999,-2.392656165476187,[3.67],,10.1039/c8ra04569k,Double anions
mp-1198591,RbMoPO6,True,False,2.8368,-2.382280824404761,[2.96],,10.1021/ic3020699,Oxides
mp-1270,Dy2S3,True,False,0.593799999999999,-2.379156030187499,[2.91],,10.1021/jacs.5b03986,Double anions
mp-1270,Dy2S3,True,False,0.593799999999999,-2.379156030187499,[3.0],,10.1021/jacs.5b03986,Double anions
mp-5854,LiGaO2,True,False,3.1981,-2.378874777083333,[6.0],,10.1016/j.optmat.2019.05.014,Double anions
mp-5854,LiGaO2,True,False,3.1981,-2.378874777083333,[5.6],,10.1002/ejic.201403074,Double anions
mp-2843,SnF2,True,False,3.2704,-2.377538967083334,[1.1],,10.1016/j.physb.2010.11.015,Double anions
mp-2843,SnF2,True,False,3.2704,-2.377538967083334,[1.3],,10.1039/c8ta06391e,Double anions
mp-2843,SnF2,True,False,3.2704,-2.377538967083334,[1.4],,10.1039/c7ta00929a,Double anions
mp-19083,NaVO3,True,False,3.2386,-2.375747678275863,[3.1],,10.1039/c4cp01000k,Oxides
mp-19083,NaVO3,True,False,3.2386,-2.375747678275863,[1.89],,10.1007/s12613-012-0668-1,Oxides
mp-557920,Zn3(PO4)2,True,False,3.4214,-2.373133279945054,[3.43],,10.1134/S0036023620090016,Oxides
mp-1403,Sm2S3,True,False,0.7441,-2.366152452,[3.0],,10.1021/jacs.5b03986,Double anions
mp-4236,BaZnO2,True,False,2.2724,-2.365424036666665,[2.2],,10.1007/s10765-016-2115-4,Double anions
mp-3439,SbPO4,True,False,4.002099999999999,-2.355047281607143,[4.42],,10.1039/c8ce00790j,Chalcogenides
mp-3439,SbPO4,True,False,4.002099999999999,-2.355047281607143,[4.35],,10.1039/c2ra21434b,Chalcogenides
mp-540688,SrIn2O4,True,False,1.807999999999999,-2.354714595476186,[3.66],,10.1039/c4ra08153f,Double anions
mp-540688,SrIn2O4,True,False,1.807999999999999,-2.354714595476186,[3.61],,10.1039/c8ra04569k,Double anions
mp-1194807,Na2Ca(CO3)2,False,True,4.4362,-2.353576755137147,[6.05],,10.1039/c7tc02789c,Double anions
mp-760510,Sr2Bi2O5,True,True,2.4829,-2.353507547222223,[3.17],,10.1016/j.jpcs.2013.11.015,Double anions
mp-2758,SrSe,True,False,2.2313,-2.35255396453125,[4.7],,10.1016/S0022-0248(99)00757-5,Chalcogenides
mp-2758,SrSe,True,False,2.2313,-2.35255396453125,[2.54],,10.1038/srep45869,Chalcogenides
mp-2758,SrSe,True,False,2.2313,-2.35255396453125,[3.74],,10.1038/srep45869,Chalcogenides
mp-2758,SrSe,True,False,2.2313,-2.35255396453125,[4.45],,10.1021/jacs.5b03986,Chalcogenides
mp-2758,SrSe,True,False,2.2313,-2.35255396453125,[4.42],,10.1021/jacs.5b03986,Chalcogenides
mp-19260,Li2WO4,True,False,3.968,-2.352370269523809,[4.0],,10.1007/s10973-017-6355-8,Double anions
mp-19260,Li2WO4,True,False,3.968,-2.352370269523809,[4.35],,10.1007/s10973-017-6355-8,Double anions
mp-753395,FePO4,True,True,1.3564,-2.351585960357142,[1.323],,10.1016/j.colsurfa.2020.124561,Halides
mp-753395,FePO4,True,True,1.3564,-2.351585960357142,[3.43],,10.1039/c8cp06083e,Halides
mp-753395,FePO4,True,True,1.3564,-2.351585960357142,[1.8],,10.1039/c8ra09154d,Halides
mp-753395,FePO4,True,True,1.3564,-2.351585960357142,[6.34],,10.1039/c8ra09154d,Halides
mp-753395,FePO4,True,True,1.3564,-2.351585960357142,[3.2],,10.1039/c8ra09154d,Halides
mp-753395,FePO4,True,True,1.3564,-2.351585960357142,[3.55],,10.1039/c8ra09154d,Halides
mp-753395,FePO4,True,True,1.3564,-2.351585960357142,[3.34],,10.1039/c8ra09154d,Halides
mp-753395,FePO4,True,True,1.3564,-2.351585960357142,[1.89],,10.1039/c8ra09154d,Halides
mp-753395,FePO4,True,True,1.3564,-2.351585960357142,[1.88],,10.1039/c8ra09154d,Halides
mp-753395,FePO4,True,True,1.3564,-2.351585960357142,[3.0],,10.1039/c8ra09154d,Halides
mp-753395,FePO4,True,True,1.3564,-2.351585960357142,[1.7],,10.1039/d0ta05355d,Halides
mp-753395,FePO4,True,True,1.3564,-2.351585960357142,[1.3],,10.1039/d0ta05355d,Halides
mp-1213104,CsSrBr3,True,True,4.5563,-2.349344952931039,[6.3],,10.1039/d0tc02231d,Halides
mp-1104293,K2AgF4,True,False,0.6126,-2.347875460880952,[1.8],,10.1039/b902161b,Double anions
mp-1194610,K4Mg(WO4)3,False,False,4.6083,-2.344874842449999,[4.53],,10.1039/c5dt00332f,Oxides
mp-1194610,K4Mg(WO4)3,False,False,4.6083,-2.344874842449999,[4.28],,10.1002/ejic.201500009,Oxides
mp-23309,ScCl3,True,False,3.8723,-2.343001440624999,[5.0],,10.1039/c9nr08719b,Halides
mp-32798,La2Se3,True,True,1.58,-2.342295032187499,[2.3],,10.1016/j.jlumin.2012.11.030,Double anions
mp-32798,La2Se3,True,True,1.58,-2.342295032187499,[1.97],,10.1021/jacs.5b03986,Double anions
mp-32798,La2Se3,True,True,1.58,-2.342295032187499,[1.7],,10.1021/jacs.5b03986,Double anions
mp-9380,SrGe4O9,False,False,3.0685,-2.338752899642857,[3.28],,10.1007/s00339-020-3329-7,Chalcogenides
mp-9380,SrGe4O9,False,False,3.0685,-2.338752899642857,[4.5],,10.1007/s00339-020-3329-7,Chalcogenides
mp-556407,Ba3Bi2TeO9,True,False,2.1188,-2.334691380444445,[2.3],,10.1007/s10789-005-0169-y,Double anions
mp-669509,Gd2S3,True,False,0.5267000000000001,-2.334266813187497,[2.6],,10.1039/d0nr03094e,Double anions
mp-669509,Gd2S3,True,False,0.5267000000000001,-2.334266813187497,[2.63],,10.1039/d0nr03094e,Double anions
mp-669509,Gd2S3,True,False,0.5267000000000001,-2.334266813187497,[2.95],,10.1007/s13204-015-0478-7,Double anions
mp-2490654,MnV2O6,True,True,1.8528,-2.333588346992338,[1.93],,10.1039/c7dt00780a,Double anions
mp-777049,LiFeBO3,True,True,3.1615,-2.332140617916666,[3.4],,10.1007/s10008-020-04836-3,Halides
mp-1500,BaS,True,False,2.1488,-2.329084296249999,[3.46],,10.1007/s00894-020-04370-z,Chalcogenides
mp-1500,BaS,True,False,2.1488,-2.329084296249999,[2.1],,10.1007/s11663-017-1107-5,Chalcogenides
mp-1500,BaS,True,False,2.1488,-2.329084296249999,[3.88],,10.1021/jacs.5b03986,Chalcogenides
mp-1500,BaS,True,False,2.1488,-2.329084296249999,[3.9],,10.1021/jacs.5b03986,Chalcogenides
mp-755749,Cr2O3,False,True,2.405899999999999,-2.328298080499999,[3.4],,10.1016/j.cej.2015.11.030,Double anions
mp-755749,Cr2O3,False,True,2.405899999999999,-2.328298080499999,[2.06],,10.1016/j.matpr.2020.05.503,Double anions
mp-755749,Cr2O3,False,True,2.405899999999999,-2.328298080499999,[2.7],,10.1016/j.optmat.2019.109220,Double anions
mp-755749,Cr2O3,False,True,2.405899999999999,-2.328298080499999,[1.1],,10.1016/j.optmat.2019.109220,Double anions
mp-755749,Cr2O3,False,True,2.405899999999999,-2.328298080499999,[3.0],,10.1016/j.rinp.2019.02.042,Double anions
mp-755749,Cr2O3,False,True,2.405899999999999,-2.328298080499999,[3.4],,10.1039/c5ta02528a,Double anions
mp-755749,Cr2O3,False,True,2.405899999999999,-2.328298080499999,[3.5],,10.1039/c6ra09908d,Double anions
mp-755749,Cr2O3,False,True,2.405899999999999,-2.328298080499999,[3.11],,10.1039/c7cp00025a,Double anions
mp-755749,Cr2O3,False,True,2.405899999999999,-2.328298080499999,[3.0],,10.1039/c7ta00431a,Double anions
mp-755749,Cr2O3,False,True,2.405899999999999,-2.328298080499999,[3.4],,10.1039/c1jm13127c,Double anions
mp-755749,Cr2O3,False,True,2.405899999999999,-2.328298080499999,[3.5],,10.1039/c6nr09584d,Double anions
mp-755749,Cr2O3,False,True,2.405899999999999,-2.328298080499999,[3.3],,10.1039/c6nr09584d,Double anions
mp-755749,Cr2O3,False,True,2.405899999999999,-2.328298080499999,[2.35],,10.1039/c7cy00644f,Double anions
mp-755749,Cr2O3,False,True,2.405899999999999,-2.328298080499999,[3.5],,10.1039/d0ce01313g,Double anions
mp-755749,Cr2O3,False,True,2.405899999999999,-2.328298080499999,[3.4],,10.1039/c3ce41843j,Double anions
mp-755749,Cr2O3,False,True,2.405899999999999,-2.328298080499999,[3.4],,10.1039/c7ra01954h,Double anions
mp-755749,Cr2O3,False,True,2.405899999999999,-2.328298080499999,[1.2],,10.1007/s00214-018-2222-3,Double anions
mp-755749,Cr2O3,False,True,2.405899999999999,-2.328298080499999,[3.0],300,10.1007/s10948-018-4713-9,Double anions
mp-755749,Cr2O3,False,True,2.405899999999999,-2.328298080499999,[3.1],,10.1007/s10971-019-05179-w,Double anions
mp-755749,Cr2O3,False,True,2.405899999999999,-2.328298080499999,[3.774],,10.1007/s13204-020-01590-w,Double anions
mp-755749,Cr2O3,False,True,2.405899999999999,-2.328298080499999,[3.04],,10.1007/s42452-020-03636-8,Double anions
mp-755749,Cr2O3,False,True,2.405899999999999,-2.328298080499999,[1.95],,10.1007/s42452-020-03636-8,Double anions
mp-755749,Cr2O3,False,True,2.405899999999999,-2.328298080499999,[3.08],,10.1007/s10854-020-03558-6,Double anions
mp-755749,Cr2O3,False,True,2.405899999999999,-2.328298080499999,[3.08],,10.1007/s11666-015-0328-x,Double anions
mp-755749,Cr2O3,False,True,2.405899999999999,-2.328298080499999,[3.4],,10.1007/s12039-015-0940-9,Double anions
mp-755749,Cr2O3,False,True,2.405899999999999,-2.328298080499999,[3.0],,10.1186/s42269-019-0134-6,Double anions
mp-755749,Cr2O3,False,True,2.405899999999999,-2.328298080499999,[0.2],,10.1007/s10008-015-2849-0,Double anions
mp-755749,Cr2O3,False,True,2.405899999999999,-2.328298080499999,[1.68],,10.1021/jacs.5b03986,Double anions
mp-755749,Cr2O3,False,True,2.405899999999999,-2.328298080499999,[1.59],,10.1021/jacs.5b03986,Double anions
mp-755749,Cr2O3,False,True,2.405899999999999,-2.328298080499999,[1.0],,10.1021/jacs.5b03986,Double anions
mp-755749,Cr2O3,False,True,2.405899999999999,-2.328298080499999,[1.62],,10.1021/jacs.5b03986,Double anions
mp-1202825,CsLu7S11,True,False,2.031799999999999,-2.327677670332728,[1.86],,10.1143/JJAP.50.031102,Chalcogenides
mp-556070,Na5Gd(MoO4)4,True,False,3.3922,-2.325360294303714,[3.376],,10.1021/ic900784t,Oxides
mp-1194849,Na3MoO4F,True,False,4.5355,-2.323694597126436,[4.77],,10.1021/acs.inorgchem.5b00052,Halides
mp-19142,Mn2V2O7,True,False,1.204,-2.32008509916928,[1.8],,10.1039/d0nr02325f,Double anions
mp-1415,CaSe,True,False,2.0728,-2.315957819531251,[2.86],,10.1016/j.matpr.2018.05.130,Chalcogenides
mp-1415,CaSe,True,False,2.0728,-2.315957819531251,[2.08],,10.1016/j.physb.2008.03.009,Chalcogenides
mp-1415,CaSe,True,False,2.0728,-2.315957819531251,[2.046],,10.1016/j.rinp.2018.07.042,Chalcogenides
mp-1415,CaSe,True,False,2.0728,-2.315957819531251,[0.54],,10.1016/j.jssc.2017.10.028,Chalcogenides
mp-1415,CaSe,True,False,2.0728,-2.315957819531251,[4.87],,10.1021/jacs.5b03986,Chalcogenides
mp-552488,LaCuSeO,True,False,1.5380999999999991,-2.314142779335937,[2.8],,10.1039/c8qi01402g,Chalcogenides
mp-552488,LaCuSeO,True,False,1.5380999999999991,-2.314142779335937,[1.496],,10.1007/s10948-012-1415-6,Chalcogenides
mp-1194980,KY(TeO3)2,True,False,3.1251,-2.305556996558334,[3.8],,10.1021/nn305707f,Chalcogenides
mp-754815,YBr3,True,True,3.976499999999999,-2.30537281125,[2.82],,10.1039/c7tc03003g,Halides
mp-754815,YBr3,True,True,3.976499999999999,-2.30537281125,[2.16],,10.1039/c7tc03003g,Halides
mp-754815,YBr3,True,True,3.976499999999999,-2.30537281125,[4.16],,10.1039/c7tc03003g,Halides
mp-754815,YBr3,True,True,3.976499999999999,-2.30537281125,[4.2],,10.1039/c7tc03003g,Halides
mp-754815,YBr3,True,True,3.976499999999999,-2.30537281125,[2.18],,10.1039/c7tc03003g,Halides
mp-6126,LiCdBO3,True,False,2.115599999999999,-2.30400035625,[4.28],,10.1016/j.jssc.2015.12.004,Oxides
mp-1194706,RbY(TeO3)2,True,False,3.1745,-2.302052576083333,[3.6],,10.1021/nn305707f,Chalcogenides
mp-19346,Fe3(PO4)2,True,False,0.8948,-2.295905708021976,[0.38],,10.1016/j.colsurfa.2020.124561,Halides
mp-19346,Fe3(PO4)2,True,False,0.8948,-2.295905708021976,[0.38],300,10.1016/j.colsurfa.2020.124561,Halides
mp-19346,Fe3(PO4)2,True,False,0.8948,-2.295905708021976,[0.83],,10.1016/j.colsurfa.2020.124561,Halides
mp-1198687,La2ZrS5,True,False,1.0739,-2.291879551562502,[2.01],,10.1039/c3dt50291k,Double anions
mp-25279,V2O5,True,False,2.161,-2.2890218171428582,[2.13],,10.1016/j.cej.2011.02.051,Double anions
mp-25279,V2O5,True,False,2.161,-2.2890218171428582,[2.2],,10.1016/j.cej.2011.11.032,Double anions
mp-25279,V2O5,True,False,2.161,-2.2890218171428582,[2.93],,10.1016/j.cej.2013.09.056,Double anions
mp-25279,V2O5,True,False,2.161,-2.2890218171428582,[2.917],,10.1016/j.cej.2013.09.056,Double anions
mp-25279,V2O5,True,False,2.161,-2.2890218171428582,[2.3],,10.1016/j.cej.2016.08.068,Double anions
mp-25279,V2O5,True,False,2.161,-2.2890218171428582,[2.24],,10.1016/j.cej.2017.07.146,Double anions
mp-25279,V2O5,True,False,2.161,-2.2890218171428582,[3.02],,10.1016/j.cej.2017.07.146,Double anions
mp-25279,V2O5,True,False,2.161,-2.2890218171428582,[2.3],,10.1016/j.cej.2019.01.179,Double anions
mp-25279,V2O5,True,False,2.161,-2.2890218171428582,[2.49],,10.1016/j.cej.2019.01.179,Double anions
mp-25279,V2O5,True,False,2.161,-2.2890218171428582,[2.49],,10.1016/j.cej.2019.122501,Double anions
mp-25279,V2O5,True,False,2.161,-2.2890218171428582,[2.2],,10.1016/j.cej.2020.124164,Double anions
mp-25279,V2O5,True,False,2.161,-2.2890218171428582,[2.8],,10.1016/j.jece.2018.08.028,Double anions
mp-25279,V2O5,True,False,2.161,-2.2890218171428582,[1.96],,10.1016/j.matpr.2019.06.603,Double anions
mp-25279,V2O5,True,False,2.161,-2.2890218171428582,[3.27],,10.1016/j.matpr.2020.03.028,Double anions
mp-25279,V2O5,True,False,2.161,-2.2890218171428582,[2.2],,10.1016/j.matpr.2020.04.205,Double anions
mp-25279,V2O5,True,False,2.161,-2.2890218171428582,[2.5],300,10.1016/j.matpr.2020.05.104,Double anions
mp-25279,V2O5,True,False,2.161,-2.2890218171428582,[1.9],,10.1016/j.physb.2012.01.098,Double anions
mp-25279,V2O5,True,False,2.161,-2.2890218171428582,[3.0],,10.1016/j.physb.2015.09.017,Double anions
mp-25279,V2O5,True,False,2.161,-2.2890218171428582,[2.59],,10.1016/j.physb.2015.09.017,Double anions
mp-25279,V2O5,True,False,2.161,-2.2890218171428582,[2.3],,10.1016/j.tsf.2004.01.076,Double anions
mp-25279,V2O5,True,False,2.161,-2.2890218171428582,[2.03],,10.1016/j.tsf.2005.03.039,Double anions