mpids,formula,is_stable,theoretical,band_gap,formation_energy_per_atom,Value,Temperature_raw_value,DOI,compound_type
mp-390,TiO2,True,False,2.0586,-3.508055451944444,[1.04],,10.1016/j.cej.2015.07.064,Double anions
mp-390,TiO2,True,False,2.0586,-3.508055451944444,[3.2],,10.1016/j.cej.2015.07.072,Double anions
mp-390,TiO2,True,False,2.0586,-3.508055451944444,[2.61],,10.1016/j.cej.2015.07.072,Double anions
mp-390,TiO2,True,False,2.0586,-3.508055451944444,[3.0],,10.1016/j.cej.2015.07.090,Double anions
mp-390,TiO2,True,False,2.0586,-3.508055451944444,[1.9],,10.1016/j.cej.2015.07.090,Double anions
mp-390,TiO2,True,False,2.0586,-3.508055451944444,[2.2],,10.1016/j.cej.2015.07.090,Double anions
mp-390,TiO2,True,False,2.0586,-3.508055451944444,[3.2],,10.1016/j.cej.2015.07.093,Double anions
mp-390,TiO2,True,False,2.0586,-3.508055451944444,[3.2],,10.1016/j.cej.2015.08.002,Double anions
mp-390,TiO2,True,False,2.0586,-3.508055451944444,[3.2],,10.1016/j.cej.2015.08.057,Double anions
mp-390,TiO2,True,False,2.0586,-3.508055451944444,[3.03],,10.1016/j.cej.2015.08.147,Double anions
mp-390,TiO2,True,False,2.0586,-3.508055451944444,[3.2],,10.1016/j.cej.2015.09.001,Double anions
mp-390,TiO2,True,False,2.0586,-3.508055451944444,[3.2],,10.1016/j.cej.2015.09.109,Double anions
mp-390,TiO2,True,False,2.0586,-3.508055451944444,[2.7],,10.1016/j.cej.2015.09.109,Double anions
mp-390,TiO2,True,False,2.0586,-3.508055451944444,[3.12],,10.1016/j.cej.2015.10.033,Double anions
mp-390,TiO2,True,False,2.0586,-3.508055451944444,[3.14],,10.1016/j.cej.2015.10.037,Double anions
mp-390,TiO2,True,False,2.0586,-3.508055451944444,[3.1],,10.1016/j.cej.2015.10.072,Double anions
mp-390,TiO2,True,False,2.0586,-3.508055451944444,[3.2],,10.1016/j.cej.2015.10.072,Double anions
mp-390,TiO2,True,False,2.0586,-3.508055451944444,[3.2],,10.1016/j.cej.2015.10.100,Double anions
mp-390,TiO2,True,False,2.0586,-3.508055451944444,[3.16],,10.1016/j.cej.2016.01.017,Double anions
mp-390,TiO2,True,False,2.0586,-3.508055451944444,[3.2],,10.1016/j.cej.2016.02.087,Double anions
mp-390,TiO2,True,False,2.0586,-3.508055451944444,[3.26],,10.1016/j.cej.2016.03.097,Double anions
mp-390,TiO2,True,False,2.0586,-3.508055451944444,[3.2],,10.1016/j.cej.2016.04.024,Double anions
mp-390,TiO2,True,False,2.0586,-3.508055451944444,[2.85],,10.1016/j.cej.2016.04.024,Double anions
mp-390,TiO2,True,False,2.0586,-3.508055451944444,[3.26],,10.1016/j.cej.2016.04.032,Double anions
mp-390,TiO2,True,False,2.0586,-3.508055451944444,[1.93],,10.1016/j.cej.2016.04.032,Double anions
mp-390,TiO2,True,False,2.0586,-3.508055451944444,[3.2],,10.1016/j.cej.2016.04.041,Double anions
mp-390,TiO2,True,False,2.0586,-3.508055451944444,[3.2],,10.1016/j.cej.2016.04.067,Double anions
mp-390,TiO2,True,False,2.0586,-3.508055451944444,[1.54],,10.1016/j.cej.2016.04.067,Double anions
mp-390,TiO2,True,False,2.0586,-3.508055451944444,[2.7],,10.1016/j.cej.2016.04.092,Double anions
mp-390,TiO2,True,False,2.0586,-3.508055451944444,[3.26],,10.1016/j.cej.2016.05.007,Double anions
mp-390,TiO2,True,False,2.0586,-3.508055451944444,[3.2],,10.1016/j.cej.2016.05.049,Double anions
mp-390,TiO2,True,False,2.0586,-3.508055451944444,[3.2],,10.1016/j.cej.2016.05.076,Double anions
mp-390,TiO2,True,False,2.0586,-3.508055451944444,[3.2],,10.1016/j.cej.2016.05.108,Double anions
mp-390,TiO2,True,False,2.0586,-3.508055451944444,[3.2],,10.1016/j.cej.2016.05.125,Double anions
mp-390,TiO2,True,False,2.0586,-3.508055451944444,[3.2],,10.1016/j.cej.2016.05.126,Double anions
mp-390,TiO2,True,False,2.0586,-3.508055451944444,[3.0],,10.1016/j.cej.2016.05.126,Double anions
mp-390,TiO2,True,False,2.0586,-3.508055451944444,[3.2],,10.1016/j.cej.2016.05.140,Double anions
mp-390,TiO2,True,False,2.0586,-3.508055451944444,[3.2],,10.1016/j.cej.2016.06.003,Double anions
mp-390,TiO2,True,False,2.0586,-3.508055451944444,[3.2],,10.1016/j.cej.2016.06.012,Double anions
mp-390,TiO2,True,False,2.0586,-3.508055451944444,[3.2],,10.1016/j.cej.2016.06.018,Double anions
mp-390,TiO2,True,False,2.0586,-3.508055451944444,[3.2],,10.1016/j.cej.2016.06.022,Double anions
mp-390,TiO2,True,False,2.0586,-3.508055451944444,[3.6],300,10.1016/j.cej.2016.06.061,Double anions
mp-390,TiO2,True,False,2.0586,-3.508055451944444,[2.81],,10.1016/j.cej.2016.07.074,Double anions
mp-390,TiO2,True,False,2.0586,-3.508055451944444,[3.2],,10.1016/j.cej.2016.08.068,Double anions
mp-390,TiO2,True,False,2.0586,-3.508055451944444,[3.2],,10.1016/j.cej.2016.09.083,Double anions
mp-390,TiO2,True,False,2.0586,-3.508055451944444,[3.2],,10.1016/j.cej.2016.11.135,Double anions
mp-390,TiO2,True,False,2.0586,-3.508055451944444,[3.2],,10.1016/j.cej.2016.11.164,Double anions
mp-390,TiO2,True,False,2.0586,-3.508055451944444,[3.2],,10.1016/j.cej.2016.12.016,Double anions
mp-390,TiO2,True,False,2.0586,-3.508055451944444,[3.2],,10.1016/j.cej.2016.12.018,Double anions
mp-390,TiO2,True,False,2.0586,-3.508055451944444,[3.3],,10.1016/j.cej.2017.01.001,Double anions
mp-390,TiO2,True,False,2.0586,-3.508055451944444,[3.21],,10.1016/j.cej.2017.01.001,Double anions
mp-390,TiO2,True,False,2.0586,-3.508055451944444,[1.7],,10.1016/j.cej.2017.01.001,Double anions
mp-390,TiO2,True,False,2.0586,-3.508055451944444,[3.2],,10.1016/j.cej.2017.01.107,Double anions
mp-390,TiO2,True,False,2.0586,-3.508055451944444,[1.54],,10.1016/j.cej.2017.01.107,Double anions
mp-390,TiO2,True,False,2.0586,-3.508055451944444,[3.08],,10.1016/j.cej.2017.01.107,Double anions
mp-390,TiO2,True,False,2.0586,-3.508055451944444,[3.2],,10.1016/j.cej.2017.01.132,Double anions
mp-390,TiO2,True,False,2.0586,-3.508055451944444,[3.3],,10.1016/j.cej.2017.02.033,Double anions
mp-390,TiO2,True,False,2.0586,-3.508055451944444,[3.2],,10.1016/j.cej.2017.03.062,Double anions
mp-390,TiO2,True,False,2.0586,-3.508055451944444,[3.2],,10.1016/j.cej.2017.03.066,Double anions
mp-390,TiO2,True,False,2.0586,-3.508055451944444,[3.2],,10.1016/j.cej.2017.05.021,Double anions
mp-390,TiO2,True,False,2.0586,-3.508055451944444,[2.11],,10.1016/j.cej.2017.05.080,Double anions
mp-390,TiO2,True,False,2.0586,-3.508055451944444,[3.2],,10.1016/j.cej.2017.05.092,Double anions
mp-390,TiO2,True,False,2.0586,-3.508055451944444,[3.2],,10.1016/j.cej.2017.07.075,Double anions
mp-390,TiO2,True,False,2.0586,-3.508055451944444,[2.99],,10.1016/j.cej.2017.07.109,Double anions
mp-390,TiO2,True,False,2.0586,-3.508055451944444,[3.17],,10.1016/j.cej.2017.07.109,Double anions
mp-390,TiO2,True,False,2.0586,-3.508055451944444,[3.2],,10.1016/j.cej.2017.07.146,Double anions
mp-390,TiO2,True,False,2.0586,-3.508055451944444,[3.2],,10.1016/j.cej.2017.09.153,Double anions
mp-390,TiO2,True,False,2.0586,-3.508055451944444,[3.2],,10.1016/j.cej.2017.10.163,Double anions
mp-390,TiO2,True,False,2.0586,-3.508055451944444,[3.18],,10.1016/j.cej.2017.10.174,Double anions
mp-390,TiO2,True,False,2.0586,-3.508055451944444,[3.2],,10.1016/j.cej.2017.11.130,Double anions
mp-390,TiO2,True,False,2.0586,-3.508055451944444,[3.2],,10.1016/j.cej.2017.11.148,Double anions
mp-390,TiO2,True,False,2.0586,-3.508055451944444,[5.1],,10.1016/j.cej.2017.11.149,Double anions
mp-390,TiO2,True,False,2.0586,-3.508055451944444,[3.2],,10.1016/j.cej.2017.12.029,Double anions
mp-390,TiO2,True,False,2.0586,-3.508055451944444,[3.22],,10.1016/j.cej.2017.12.088,Double anions
mp-390,TiO2,True,False,2.0586,-3.508055451944444,[3.2],,10.1016/j.cej.2017.12.092,Double anions
mp-390,TiO2,True,False,2.0586,-3.508055451944444,[3.2],,10.1016/j.cej.2018.01.063,Double anions
mp-390,TiO2,True,False,2.0586,-3.508055451944444,[3.08],,10.1016/j.cej.2018.01.063,Double anions
mp-390,TiO2,True,False,2.0586,-3.508055451944444,[2.81],,10.1016/j.cej.2018.01.063,Double anions
mp-390,TiO2,True,False,2.0586,-3.508055451944444,[3.2],,10.1016/j.cej.2018.02.015,Double anions
mp-390,TiO2,True,False,2.0586,-3.508055451944444,[3.21],,10.1016/j.cej.2018.03.095,Double anions
mp-390,TiO2,True,False,2.0586,-3.508055451944444,[3.2],,10.1016/j.cej.2018.03.103,Double anions
mp-390,TiO2,True,False,2.0586,-3.508055451944444,[3.15],,10.1016/j.cej.2018.03.103,Double anions
mp-390,TiO2,True,False,2.0586,-3.508055451944444,[3.2],,10.1016/j.cej.2018.04.017,Double anions
mp-390,TiO2,True,False,2.0586,-3.508055451944444,[2.65],,10.1016/j.cej.2018.04.038,Double anions
mp-390,TiO2,True,False,2.0586,-3.508055451944444,[0.23],,10.1016/j.cej.2018.04.038,Double anions
mp-390,TiO2,True,False,2.0586,-3.508055451944444,[3.2],,10.1016/j.cej.2018.04.083,Double anions
mp-390,TiO2,True,False,2.0586,-3.508055451944444,[3.03],,10.1016/j.cej.2018.04.182,Double anions
mp-390,TiO2,True,False,2.0586,-3.508055451944444,[3.02],,10.1016/j.cej.2018.05.020,Double anions
mp-390,TiO2,True,False,2.0586,-3.508055451944444,[3.17],,10.1016/j.cej.2018.05.020,Double anions
mp-390,TiO2,True,False,2.0586,-3.508055451944444,[2.99],,10.1016/j.cej.2018.05.051,Double anions
mp-390,TiO2,True,False,2.0586,-3.508055451944444,[2.79],,10.1016/j.cej.2018.05.051,Double anions
mp-390,TiO2,True,False,2.0586,-3.508055451944444,[3.12],,10.1016/j.cej.2018.05.122,Double anions
mp-390,TiO2,True,False,2.0586,-3.508055451944444,[2.47],,10.1016/j.cej.2018.05.122,Double anions
mp-390,TiO2,True,False,2.0586,-3.508055451944444,[3.07],,10.1016/j.cej.2018.05.122,Double anions
mp-390,TiO2,True,False,2.0586,-3.508055451944444,[3.22],,10.1016/j.cej.2018.05.148,Double anions
mp-390,TiO2,True,False,2.0586,-3.508055451944444,[2.6],,10.1016/j.cej.2018.06.015,Double anions
mp-390,TiO2,True,False,2.0586,-3.508055451944444,[3.2],,10.1016/j.cej.2018.06.037,Double anions
mp-390,TiO2,True,False,2.0586,-3.508055451944444,[3.15],,10.1016/j.cej.2018.06.046,Double anions
mp-390,TiO2,True,False,2.0586,-3.508055451944444,[3.2],,10.1016/j.cej.2018.06.120,Double anions
mp-390,TiO2,True,False,2.0586,-3.508055451944444,[3.2],,10.1016/j.cej.2018.07.089,Double anions
mp-390,TiO2,True,False,2.0586,-3.508055451944444,[2.95],,10.1016/j.cej.2018.07.093,Double anions
mp-390,TiO2,True,False,2.0586,-3.508055451944444,[3.0],,10.1016/j.cej.2018.07.123,Double anions
mp-390,TiO2,True,False,2.0586,-3.508055451944444,[3.02],,10.1016/j.cej.2018.07.123,Double anions
mp-390,TiO2,True,False,2.0586,-3.508055451944444,[2.95],,10.1016/j.cej.2018.07.123,Double anions
mp-390,TiO2,True,False,2.0586,-3.508055451944444,[2.8],,10.1016/j.cej.2018.07.153,Double anions
mp-390,TiO2,True,False,2.0586,-3.508055451944444,[3.2],,10.1016/j.cej.2018.08.028,Double anions
mp-390,TiO2,True,False,2.0586,-3.508055451944444,[3.2],,10.1016/j.cej.2018.08.158,Double anions
mp-390,TiO2,True,False,2.0586,-3.508055451944444,[3.2],,10.1016/j.cej.2018.10.024,Double anions
mp-390,TiO2,True,False,2.0586,-3.508055451944444,[3.04],,10.1016/j.cej.2018.10.024,Double anions
mp-390,TiO2,True,False,2.0586,-3.508055451944444,[3.2],,10.1016/j.cej.2018.10.072,Double anions
mp-390,TiO2,True,False,2.0586,-3.508055451944444,[3.2],,10.1016/j.cej.2018.10.083,Double anions
mp-390,TiO2,True,False,2.0586,-3.508055451944444,[2.96],,10.1016/j.cej.2018.10.085,Double anions
mp-390,TiO2,True,False,2.0586,-3.508055451944444,[3.12],,10.1016/j.cej.2018.10.154,Double anions
mp-390,TiO2,True,False,2.0586,-3.508055451944444,[3.2],,10.1016/j.cej.2018.10.214,Double anions
mp-390,TiO2,True,False,2.0586,-3.508055451944444,[2.95],,10.1016/j.cej.2018.10.237,Double anions
mp-390,TiO2,True,False,2.0586,-3.508055451944444,[3.16],,10.1016/j.cej.2018.11.090,Double anions
mp-390,TiO2,True,False,2.0586,-3.508055451944444,[3.2],,10.1016/j.cej.2018.11.132,Double anions
mp-390,TiO2,True,False,2.0586,-3.508055451944444,[3.33],,10.1016/j.cej.2018.11.132,Double anions
mp-390,TiO2,True,False,2.0586,-3.508055451944444,[3.2],,10.1016/j.cej.2018.11.211,Double anions
mp-390,TiO2,True,False,2.0586,-3.508055451944444,[3.2],,10.1016/j.cej.2018.12.027,Double anions
mp-390,TiO2,True,False,2.0586,-3.508055451944444,[3.0],,10.1016/j.cej.2018.12.065,Double anions
mp-390,TiO2,True,False,2.0586,-3.508055451944444,[3.2],,10.1016/j.cej.2018.12.118,Double anions
mp-390,TiO2,True,False,2.0586,-3.508055451944444,[3.2],,10.1016/j.cej.2019.02.035,Double anions
mp-390,TiO2,True,False,2.0586,-3.508055451944444,[3.23],,10.1016/j.cej.2019.02.083,Double anions
mp-390,TiO2,True,False,2.0586,-3.508055451944444,[3.2],,10.1016/j.cej.2019.02.167,Double anions
mp-390,TiO2,True,False,2.0586,-3.508055451944444,[3.2],,10.1016/j.cej.2019.02.169,Double anions
mp-390,TiO2,True,False,2.0586,-3.508055451944444,[2.99],,10.1016/j.cej.2019.03.140,Double anions
mp-390,TiO2,True,False,2.0586,-3.508055451944444,[3.2],,10.1016/j.cej.2019.03.160,Double anions
mp-390,TiO2,True,False,2.0586,-3.508055451944444,[3.2],,10.1016/j.cej.2019.03.248,Double anions
mp-390,TiO2,True,False,2.0586,-3.508055451944444,[3.2],,10.1016/j.cej.2019.03.259,Double anions
mp-390,TiO2,True,False,2.0586,-3.508055451944444,[2.75],,10.1016/j.cej.2019.03.259,Double anions
mp-390,TiO2,True,False,2.0586,-3.508055451944444,[3.2],,10.1016/j.cej.2019.03.280,Double anions
mp-390,TiO2,True,False,2.0586,-3.508055451944444,[3.2],,10.1016/j.cej.2019.04.052,Double anions
mp-390,TiO2,True,False,2.0586,-3.508055451944444,[3.21],,10.1016/j.cej.2019.04.089,Double anions
mp-390,TiO2,True,False,2.0586,-3.508055451944444,[3.2],,10.1016/j.cej.2019.04.119,Double anions
mp-390,TiO2,True,False,2.0586,-3.508055451944444,[3.14],,10.1016/j.cej.2019.05.028,Double anions
mp-390,TiO2,True,False,2.0586,-3.508055451944444,[3.18],,10.1016/j.cej.2019.05.060,Double anions
mp-390,TiO2,True,False,2.0586,-3.508055451944444,[3.2],,10.1016/j.cej.2019.05.109,Double anions
mp-390,TiO2,True,False,2.0586,-3.508055451944444,[3.16],,10.1016/j.cej.2019.05.156,Double anions
mp-390,TiO2,True,False,2.0586,-3.508055451944444,[3.2],,10.1016/j.cej.2019.05.231,Double anions
mp-390,TiO2,True,False,2.0586,-3.508055451944444,[3.2],,10.1016/j.cej.2019.06.002,Double anions
mp-390,TiO2,True,False,2.0586,-3.508055451944444,[3.1],,10.1016/j.cej.2019.06.011,Double anions
mp-390,TiO2,True,False,2.0586,-3.508055451944444,[3.2],,10.1016/j.cej.2019.06.013,Double anions
mp-390,TiO2,True,False,2.0586,-3.508055451944444,[3.2],,10.1016/j.cej.2019.121909,Double anions
mp-390,TiO2,True,False,2.0586,-3.508055451944444,[3.2],,10.1016/j.cej.2019.121949,Double anions
mp-390,TiO2,True,False,2.0586,-3.508055451944444,[3.1],,10.1016/j.cej.2019.121992,Double anions
mp-390,TiO2,True,False,2.0586,-3.508055451944444,[2.8],,10.1016/j.cej.2019.122021,Double anions
mp-390,TiO2,True,False,2.0586,-3.508055451944444,[3.0],,10.1016/j.cej.2019.122029,Double anions
mp-390,TiO2,True,False,2.0586,-3.508055451944444,[3.2],,10.1016/j.cej.2019.122149,Double anions
mp-390,TiO2,True,False,2.0586,-3.508055451944444,[3.2],,10.1016/j.cej.2019.122269,Double anions
mp-390,TiO2,True,False,2.0586,-3.508055451944444,[1.71],,10.1016/j.cej.2019.122345,Double anions
mp-390,TiO2,True,False,2.0586,-3.508055451944444,[3.2],,10.1016/j.cej.2019.122345,Double anions
mp-390,TiO2,True,False,2.0586,-3.508055451944444,[3.2],,10.1016/j.cej.2019.122380,Double anions
mp-390,TiO2,True,False,2.0586,-3.508055451944444,[3.2],,10.1016/j.cej.2019.122399,Double anions
mp-390,TiO2,True,False,2.0586,-3.508055451944444,[3.04],,10.1016/j.cej.2019.122410,Double anions
mp-390,TiO2,True,False,2.0586,-3.508055451944444,[3.1],,10.1016/j.cej.2019.122410,Double anions
mp-390,TiO2,True,False,2.0586,-3.508055451944444,[3.2],,10.1016/j.cej.2019.122583,Double anions
mp-390,TiO2,True,False,2.0586,-3.508055451944444,[3.2],,10.1016/j.cej.2019.122840,Double anions
mp-390,TiO2,True,False,2.0586,-3.508055451944444,[3.2],,10.1016/j.cej.2019.123011,Double anions
mp-390,TiO2,True,False,2.0586,-3.508055451944444,[3.11],,10.1016/j.cej.2019.123142,Double anions
mp-390,TiO2,True,False,2.0586,-3.508055451944444,[3.2],,10.1016/j.cej.2019.123193,Double anions
mp-390,TiO2,True,False,2.0586,-3.508055451944444,[3.2],,10.1016/j.cej.2019.123196,Double anions
mp-390,TiO2,True,False,2.0586,-3.508055451944444,[3.2],,10.1016/j.cej.2019.123275,Double anions
mp-390,TiO2,True,False,2.0586,-3.508055451944444,[1.9],,10.1016/j.cej.2019.123278,Double anions
mp-390,TiO2,True,False,2.0586,-3.508055451944444,[3.05],,10.1016/j.cej.2019.123278,Double anions
mp-390,TiO2,True,False,2.0586,-3.508055451944444,[3.09],,10.1016/j.cej.2019.123350,Double anions
mp-390,TiO2,True,False,2.0586,-3.508055451944444,[3.41],,10.1016/j.cej.2019.123381,Double anions
mp-390,TiO2,True,False,2.0586,-3.508055451944444,[3.2],,10.1016/j.cej.2019.123384,Double anions
mp-390,TiO2,True,False,2.0586,-3.508055451944444,[3.33],,10.1016/j.cej.2019.123384,Double anions
mp-390,TiO2,True,False,2.0586,-3.508055451944444,[3.2],,10.1016/j.cej.2019.123496,Double anions
mp-390,TiO2,True,False,2.0586,-3.508055451944444,[3.2],,10.1016/j.cej.2019.123601,Double anions
mp-390,TiO2,True,False,2.0586,-3.508055451944444,[3.12],,10.1016/j.cej.2019.123601,Double anions
mp-390,TiO2,True,False,2.0586,-3.508055451944444,[3.11],,10.1016/j.cej.2019.123601,Double anions
mp-390,TiO2,True,False,2.0586,-3.508055451944444,[3.19],,10.1016/j.cej.2019.123601,Double anions
mp-390,TiO2,True,False,2.0586,-3.508055451944444,[3.16],,10.1016/j.cej.2019.123601,Double anions
mp-390,TiO2,True,False,2.0586,-3.508055451944444,[3.2],,10.1016/j.cej.2019.123602,Double anions
mp-390,TiO2,True,False,2.0586,-3.508055451944444,[0.03],,10.1016/j.cej.2019.123602,Double anions
mp-390,TiO2,True,False,2.0586,-3.508055451944444,[3.3],,10.1016/j.cej.2019.123602,Double anions
mp-390,TiO2,True,False,2.0586,-3.508055451944444,[3.8],,10.1016/j.cej.2019.123792,Double anions
mp-390,TiO2,True,False,2.0586,-3.508055451944444,[2.85],,10.1016/j.cej.2019.123814,Double anions
mp-390,TiO2,True,False,2.0586,-3.508055451944444,[3.06],,10.1016/j.cej.2019.123878,Double anions
mp-390,TiO2,True,False,2.0586,-3.508055451944444,[3.2],,10.1016/j.cej.2019.123918,Double anions
mp-390,TiO2,True,False,2.0586,-3.508055451944444,[2.59],,10.1016/j.cej.2019.123918,Double anions
mp-390,TiO2,True,False,2.0586,-3.508055451944444,[3.1],,10.1016/j.cej.2019.123918,Double anions
mp-390,TiO2,True,False,2.0586,-3.508055451944444,[1.74],,10.1016/j.cej.2019.123955,Double anions
mp-390,TiO2,True,False,2.0586,-3.508055451944444,[3.2],,10.1016/j.cej.2020.124099,Double anions
mp-390,TiO2,True,False,2.0586,-3.508055451944444,[3.1],,10.1016/j.cej.2020.124143,Double anions
mp-390,TiO2,True,False,2.0586,-3.508055451944444,[3.31],,10.1016/j.cej.2020.124167,Double anions
mp-390,TiO2,True,False,2.0586,-3.508055451944444,[3.2],,10.1016/j.cej.2020.124286,Double anions
mp-390,TiO2,True,False,2.0586,-3.508055451944444,[3.2],,10.1016/j.cej.2020.124388,Double anions
mp-390,TiO2,True,False,2.0586,-3.508055451944444,[3.35],,10.1016/j.cej.2020.124390,Double anions
mp-390,TiO2,True,False,2.0586,-3.508055451944444,[2.96],,10.1016/j.cej.2020.124390,Double anions
mp-390,TiO2,True,False,2.0586,-3.508055451944444,[3.2],,10.1016/j.cej.2020.124475,Double anions
mp-390,TiO2,True,False,2.0586,-3.508055451944444,[2.7],,10.1016/j.cej.2020.124475,Double anions
mp-390,TiO2,True,False,2.0586,-3.508055451944444,[3.0],,10.1016/j.cej.2020.124481,Double anions
mp-390,TiO2,True,False,2.0586,-3.508055451944444,[3.0],,10.1016/j.cej.2020.124530,Double anions
mp-390,TiO2,True,False,2.0586,-3.508055451944444,[3.2],,10.1016/j.cej.2020.124616,Double anions
mp-390,TiO2,True,False,2.0586,-3.508055451944444,[3.24],,10.1016/j.cej.2020.124707,Double anions
mp-390,TiO2,True,False,2.0586,-3.508055451944444,[3.37],,10.1016/j.cej.2020.124733,Double anions
mp-390,TiO2,True,False,2.0586,-3.508055451944444,[3.2],,10.1016/j.cej.2020.124781,Double anions
mp-390,TiO2,True,False,2.0586,-3.508055451944444,[3.2],,10.1016/j.cej.2020.124917,Double anions
mp-390,TiO2,True,False,2.0586,-3.508055451944444,[3.2],,10.1016/j.cej.2020.124921,Double anions
mp-390,TiO2,True,False,2.0586,-3.508055451944444,[3.2],,10.1016/j.cej.2020.125311,Double anions
mp-390,TiO2,True,False,2.0586,-3.508055451944444,[3.2],,10.1016/j.cej.2020.125415,Double anions
mp-390,TiO2,True,False,2.0586,-3.508055451944444,[3.3],,10.1016/j.cej.2020.125435,Double anions
mp-390,TiO2,True,False,2.0586,-3.508055451944444,[3.2],,10.1016/j.cej.2020.125730,Double anions