mpids,formula,is_stable,theoretical,band_gap,formation_energy_per_atom,Value,Temperature_raw_value,DOI,compound_type
mp-390,TiO2,True,False,2.0586,-3.508055451944444,[3.3],,10.1007/s40089-014-0111-x,Double anions
mp-390,TiO2,True,False,2.0586,-3.508055451944444,[3.4],,10.1007/s40089-018-0225-7,Double anions
mp-390,TiO2,True,False,2.0586,-3.508055451944444,[3.2],,10.1007/s40090-018-0158-z,Double anions
mp-390,TiO2,True,False,2.0586,-3.508055451944444,[3.25],,10.1007/s40097-020-00339-9,Double anions
mp-390,TiO2,True,False,2.0586,-3.508055451944444,[3.2],,10.1007/s40195-015-0356-z,Double anions
mp-390,TiO2,True,False,2.0586,-3.508055451944444,[3.17],,10.1007/s40195-015-0356-z,Double anions
mp-390,TiO2,True,False,2.0586,-3.508055451944444,[3.2],,10.1007/s40201-019-00343-4,Double anions
mp-390,TiO2,True,False,2.0586,-3.508055451944444,[3.2],,10.1007/s40534-016-0120-8,Double anions
mp-390,TiO2,True,False,2.0586,-3.508055451944444,[3.2],,10.1007/s40820-020-00422-4,Double anions
mp-390,TiO2,True,False,2.0586,-3.508055451944444,[3.2],,10.1007/s40995-017-0407-6,Double anions
mp-390,TiO2,True,False,2.0586,-3.508055451944444,[1.54],200,10.1007/s41061-016-0062-y,Double anions
mp-390,TiO2,True,False,2.0586,-3.508055451944444,[3.2],,10.1007/s41061-020-0291-y,Double anions
mp-390,TiO2,True,False,2.0586,-3.508055451944444,[3.0],,10.1007/s41061-020-0291-y,Double anions
mp-390,TiO2,True,False,2.0586,-3.508055451944444,[2.8],,10.1007/s41061-020-0291-y,Double anions
mp-390,TiO2,True,False,2.0586,-3.508055451944444,[2.85],,10.1007/s41061-020-0291-y,Double anions
mp-390,TiO2,True,False,2.0586,-3.508055451944444,[3.2],,10.1007/s41207-018-0086-5,Double anions
mp-390,TiO2,True,False,2.0586,-3.508055451944444,[3.2],,10.1007/s41779-018-0184-5,Double anions
mp-390,TiO2,True,False,2.0586,-3.508055451944444,[3.2],,10.1007/s41779-019-00383-x,Double anions
mp-390,TiO2,True,False,2.0586,-3.508055451944444,[3.2],,10.1007/s41779-020-00470-4,Double anions
mp-390,TiO2,True,False,2.0586,-3.508055451944444,[3.2],,10.1007/s42114-017-0015-0,Double anions
mp-390,TiO2,True,False,2.0586,-3.508055451944444,[1.54],,10.1007/s42247-020-00091-4,Double anions
mp-390,TiO2,True,False,2.0586,-3.508055451944444,[3.2],,10.1007/s42452-019-0522-4,Double anions
mp-390,TiO2,True,False,2.0586,-3.508055451944444,[3.2],,10.1007/s42452-019-1455-7,Double anions
mp-390,TiO2,True,False,2.0586,-3.508055451944444,[2.8],,10.1007/s42452-019-1455-7,Double anions
mp-390,TiO2,True,False,2.0586,-3.508055451944444,[3.2],,10.1007/s42452-020-2884-z,Double anions
mp-390,TiO2,True,False,2.0586,-3.508055451944444,[3.24],,10.1038/s41467-019-14223-w,Double anions
mp-390,TiO2,True,False,2.0586,-3.508055451944444,[3.96],,10.1038/s41524-020-00370-y,Double anions
mp-390,TiO2,True,False,2.0586,-3.508055451944444,[1.8],,10.1038/s41524-020-0302-0,Double anions
mp-390,TiO2,True,False,2.0586,-3.508055451944444,[6.0],,10.1038/s41566-017-0049-4,Double anions
mp-390,TiO2,True,False,2.0586,-3.508055451944444,[3.2],,10.1038/s41598-017-02369-w,Double anions
mp-390,TiO2,True,False,2.0586,-3.508055451944444,[3.2],,10.1038/s41598-017-12203-y,Double anions
mp-390,TiO2,True,False,2.0586,-3.508055451944444,[3.06],,10.1038/s41598-017-14463-0,Double anions
mp-390,TiO2,True,False,2.0586,-3.508055451944444,[3.2],,10.1038/s41598-017-15134-w,Double anions
mp-390,TiO2,True,False,2.0586,-3.508055451944444,[3.2],,10.1038/s41598-017-16445-8,Double anions
mp-390,TiO2,True,False,2.0586,-3.508055451944444,[3.0],,10.1038/s41598-017-16605-w,Double anions
mp-390,TiO2,True,False,2.0586,-3.508055451944444,[3.2],,10.1038/s41598-017-16605-w,Double anions
mp-390,TiO2,True,False,2.0586,-3.508055451944444,[3.2],,10.1038/s41598-017-17479-8,Double anions
mp-390,TiO2,True,False,2.0586,-3.508055451944444,[3.2],,10.1038/s41598-018-25335-6,Double anions
mp-390,TiO2,True,False,2.0586,-3.508055451944444,[3.3],,10.1038/s41598-018-28045-1,Double anions
mp-390,TiO2,True,False,2.0586,-3.508055451944444,[3.2],,10.1038/s41598-019-45091-5,Double anions
mp-390,TiO2,True,False,2.0586,-3.508055451944444,[3.25],,10.1038/s41598-019-47155-y,Double anions
mp-390,TiO2,True,False,2.0586,-3.508055451944444,[3.2],,10.1038/s41598-019-49694-w,Double anions
mp-390,TiO2,True,False,2.0586,-3.508055451944444,[3.2],,10.1038/s41598-020-69440-x,Double anions
mp-390,TiO2,True,False,2.0586,-3.508055451944444,[3.2],,10.1038/s41598-020-69888-x,Double anions
mp-390,TiO2,True,False,2.0586,-3.508055451944444,[2.87],,10.1038/s41598-020-69888-x,Double anions
mp-390,TiO2,True,False,2.0586,-3.508055451944444,[3.2],,10.1038/srep02918,Double anions
mp-390,TiO2,True,False,2.0586,-3.508055451944444,[3.2],,10.1038/srep03330,Double anions
mp-390,TiO2,True,False,2.0586,-3.508055451944444,[3.3],,10.1038/srep04561,Double anions
mp-390,TiO2,True,False,2.0586,-3.508055451944444,[1.59],,10.1038/srep04810,Double anions
mp-390,TiO2,True,False,2.0586,-3.508055451944444,[3.2],,10.1038/srep15989,Double anions
mp-390,TiO2,True,False,2.0586,-3.508055451944444,[3.15],,10.1038/srep27052,Double anions
mp-390,TiO2,True,False,2.0586,-3.508055451944444,[3.37],,10.1038/srep32355,Double anions
mp-390,TiO2,True,False,2.0586,-3.508055451944444,[2.67],,10.1038/srep39531,Double anions
mp-390,TiO2,True,False,2.0586,-3.508055451944444,[3.2],,10.1038/srep39531,Double anions
mp-390,TiO2,True,False,2.0586,-3.508055451944444,[3.2],,10.1134/S0036024418130150,Double anions
mp-390,TiO2,True,False,2.0586,-3.508055451944444,[3.02],,10.1134/S0036024419100340,Double anions
mp-390,TiO2,True,False,2.0586,-3.508055451944444,[3.04],,10.1134/S1063783419050202,Double anions
mp-390,TiO2,True,False,2.0586,-3.508055451944444,[3.08],,10.1134/S1995078019030078,Double anions
mp-390,TiO2,True,False,2.0586,-3.508055451944444,[3.22],,10.1134/S1995078019030078,Double anions
mp-390,TiO2,True,False,2.0586,-3.508055451944444,[3.2],,10.1134/S2075113320010372,Double anions
mp-390,TiO2,True,False,2.0586,-3.508055451944444,[3.0],,10.1186/1556-276X-7-217,Double anions
mp-390,TiO2,True,False,2.0586,-3.508055451944444,[2.47],,10.1186/1752-153X-5-46,Double anions
mp-390,TiO2,True,False,2.0586,-3.508055451944444,[3.2],,10.1186/s11671-015-1133-7,Double anions
mp-390,TiO2,True,False,2.0586,-3.508055451944444,[3.26],,10.1186/s11671-015-1133-7,Double anions
mp-390,TiO2,True,False,2.0586,-3.508055451944444,[3.2],,10.1186/s11671-016-1248-5,Double anions
mp-390,TiO2,True,False,2.0586,-3.508055451944444,[3.2],,10.1186/s11671-016-1721-1,Double anions
mp-390,TiO2,True,False,2.0586,-3.508055451944444,[3.2],,10.1186/s11671-017-2278-3,Double anions
mp-390,TiO2,True,False,2.0586,-3.508055451944444,[3.0],,10.1186/s13065-020-00714-1,Double anions
mp-390,TiO2,True,False,2.0586,-3.508055451944444,[3.2],,10.1186/s13065-020-00714-1,Double anions
mp-390,TiO2,True,False,2.0586,-3.508055451944444,[0.5],400,10.1557/mrc.2014.15,Double anions
mp-390,TiO2,True,False,2.0586,-3.508055451944444,[3.0],,10.3103/S0003701X19010146,Double anions
mp-390,TiO2,True,False,2.0586,-3.508055451944444,[4.54],,10.1007/BF03254293,Double anions
mp-390,TiO2,True,False,2.0586,-3.508055451944444,[5.0],,10.1007/s00214-015-1748-x,Double anions
mp-390,TiO2,True,False,2.0586,-3.508055451944444,[2.47],,10.1007/s00214-019-2474-6,Double anions
mp-390,TiO2,True,False,2.0586,-3.508055451944444,[3.2],,10.1007/s00217-011-1579-5,Double anions
mp-390,TiO2,True,False,2.0586,-3.508055451944444,[3.2],,10.1007/s00289-018-2463-2,Double anions
mp-390,TiO2,True,False,2.0586,-3.508055451944444,[3.45],,10.1007/s00339-012-6782-0,Double anions
mp-390,TiO2,True,False,2.0586,-3.508055451944444,[3.2],,10.1007/s00339-012-7195-9,Double anions
mp-390,TiO2,True,False,2.0586,-3.508055451944444,[3.2],,10.1007/s00339-012-7433-1,Double anions
mp-390,TiO2,True,False,2.0586,-3.508055451944444,[3.2],,10.1007/s00339-013-8220-3,Double anions
mp-390,TiO2,True,False,2.0586,-3.508055451944444,[2.9],,10.1007/s00339-014-8276-8,Double anions
mp-390,TiO2,True,False,2.0586,-3.508055451944444,[3.13],,10.1007/s00339-015-9030-6,Double anions
mp-390,TiO2,True,False,2.0586,-3.508055451944444,[3.2],,10.1007/s00339-015-9030-6,Double anions
mp-390,TiO2,True,False,2.0586,-3.508055451944444,[3.3],,10.1007/s00339-015-9091-6,Double anions
mp-390,TiO2,True,False,2.0586,-3.508055451944444,[3.5],,10.1007/s00339-016-0165-x,Double anions
mp-390,TiO2,True,False,2.0586,-3.508055451944444,[3.2],,10.1007/s00339-016-0302-6,Double anions
mp-390,TiO2,True,False,2.0586,-3.508055451944444,[3.01],,10.1007/s00339-016-9899-8,Double anions
mp-390,TiO2,True,False,2.0586,-3.508055451944444,[3.0],,10.1007/s00339-017-1180-2,Double anions
mp-390,TiO2,True,False,2.0586,-3.508055451944444,[3.2],,10.1007/s00339-017-1180-2,Double anions
mp-390,TiO2,True,False,2.0586,-3.508055451944444,[2.9],,10.1007/s00339-017-1286-6,Double anions
mp-390,TiO2,True,False,2.0586,-3.508055451944444,[3.2],,10.1007/s00339-019-2384-4,Double anions
mp-390,TiO2,True,False,2.0586,-3.508055451944444,[3.32],,10.1007/s00339-020-03593-4,Double anions
mp-390,TiO2,True,False,2.0586,-3.508055451944444,[3.2],,10.1007/s00396-011-2421-0,Double anions
mp-390,TiO2,True,False,2.0586,-3.508055451944444,[3.2],,10.1007/s00396-017-4094-9,Double anions
mp-390,TiO2,True,False,2.0586,-3.508055451944444,[3.2],,10.1007/s00397-013-0750-2,Double anions
mp-390,TiO2,True,False,2.0586,-3.508055451944444,[3.2],,10.1007/s00449-013-1068-2,Double anions
mp-390,TiO2,True,False,2.0586,-3.508055451944444,[2.5],,10.1007/s00894-014-2086-y,Double anions
mp-390,TiO2,True,False,2.0586,-3.508055451944444,[2.89],,10.1007/s00894-018-3816-3,Double anions
mp-390,TiO2,True,False,2.0586,-3.508055451944444,[3.2],,10.1007/s10008-013-2282-1,Double anions
mp-390,TiO2,True,False,2.0586,-3.508055451944444,[3.2],,10.1007/s10008-014-2623-8,Double anions
mp-390,TiO2,True,False,2.0586,-3.508055451944444,[3.17],,10.1007/s10008-016-3191-x,Double anions
mp-390,TiO2,True,False,2.0586,-3.508055451944444,[3.0],,10.1007/s10008-016-3301-9,Double anions
mp-390,TiO2,True,False,2.0586,-3.508055451944444,[3.0],,10.1007/s10008-017-3553-z,Double anions
mp-390,TiO2,True,False,2.0586,-3.508055451944444,[3.42],,10.1007/s10008-019-04280-y,Double anions
mp-390,TiO2,True,False,2.0586,-3.508055451944444,[3.2],,10.1007/s10008-020-04568-4,Double anions
mp-390,TiO2,True,False,2.0586,-3.508055451944444,[3.2],,10.1007/s10311-019-00957-y,Double anions
mp-390,TiO2,True,False,2.0586,-3.508055451944444,[3.2],,10.1007/s10450-019-00032-6,Double anions
mp-390,TiO2,True,False,2.0586,-3.508055451944444,[3.0],,10.1007/s10562-007-9029-5,Double anions
mp-390,TiO2,True,False,2.0586,-3.508055451944444,[3.2],,10.1007/s10562-007-9179-5,Double anions
mp-390,TiO2,True,False,2.0586,-3.508055451944444,[2.3],,10.1007/s10562-007-9179-5,Double anions
mp-390,TiO2,True,False,2.0586,-3.508055451944444,[0.5],,10.1007/s10562-009-0015-y,Double anions
mp-390,TiO2,True,False,2.0586,-3.508055451944444,[3.2],,10.1007/s10562-011-0629-8,Double anions
mp-390,TiO2,True,False,2.0586,-3.508055451944444,[3.2],,10.1007/s10562-014-1276-7,Double anions
mp-390,TiO2,True,False,2.0586,-3.508055451944444,[3.14],,10.1007/s10562-018-2353-0,Double anions
mp-390,TiO2,True,False,2.0586,-3.508055451944444,[2.9],,10.1007/s10562-020-03437-z,Double anions
mp-390,TiO2,True,False,2.0586,-3.508055451944444,[3.2],,10.1007/s10562-020-03437-z,Double anions
mp-390,TiO2,True,False,2.0586,-3.508055451944444,[3.2],,10.1007/s10668-020-00861-4,Double anions
mp-390,TiO2,True,False,2.0586,-3.508055451944444,[3.2],,10.1007/s10800-013-0528-3,Double anions
mp-390,TiO2,True,False,2.0586,-3.508055451944444,[3.2],,10.1007/s10800-017-1131-9,Double anions
mp-390,TiO2,True,False,2.0586,-3.508055451944444,[3.2],,10.1007/s10832-009-9576-9,Double anions
mp-390,TiO2,True,False,2.0586,-3.508055451944444,[3.74],,10.1007/s10832-013-9822-z,Double anions
mp-390,TiO2,True,False,2.0586,-3.508055451944444,[3.5],,10.1007/s10832-013-9822-z,Double anions
mp-390,TiO2,True,False,2.0586,-3.508055451944444,[3.24],,10.1007/s10832-015-0011-0,Double anions
mp-390,TiO2,True,False,2.0586,-3.508055451944444,[3.18],,10.1007/s10853-009-3628-z,Double anions
mp-390,TiO2,True,False,2.0586,-3.508055451944444,[3.2],,10.1007/s10853-010-4949-7,Double anions
mp-390,TiO2,True,False,2.0586,-3.508055451944444,[3.2],,10.1007/s10853-011-5821-0,Double anions
mp-390,TiO2,True,False,2.0586,-3.508055451944444,[3.2],,10.1007/s10853-013-7227-7,Double anions
mp-390,TiO2,True,False,2.0586,-3.508055451944444,[3.0],,10.1007/s10853-013-7928-y,Double anions
mp-390,TiO2,True,False,2.0586,-3.508055451944444,[3.2],,10.1007/s10853-013-7928-y,Double anions
mp-390,TiO2,True,False,2.0586,-3.508055451944444,[3.03],,10.1007/s10853-015-9295-3,Double anions
mp-390,TiO2,True,False,2.0586,-3.508055451944444,[2.2],,10.1007/s10853-015-9295-3,Double anions
mp-390,TiO2,True,False,2.0586,-3.508055451944444,[2.2],,10.1007/s10853-015-9491-1,Double anions
mp-390,TiO2,True,False,2.0586,-3.508055451944444,[3.04],,10.1007/s10853-016-0096-0,Double anions
mp-390,TiO2,True,False,2.0586,-3.508055451944444,[3.2],,10.1007/s10853-016-0184-1,Double anions
mp-390,TiO2,True,False,2.0586,-3.508055451944444,[3.2],,10.1007/s10853-016-0406-6,Double anions
mp-390,TiO2,True,False,2.0586,-3.508055451944444,[3.2],,10.1007/s10853-016-0474-7,Double anions
mp-390,TiO2,True,False,2.0586,-3.508055451944444,[3.0],,10.1007/s10853-017-1002-0,Double anions
mp-390,TiO2,True,False,2.0586,-3.508055451944444,[3.37],,10.1007/s10853-017-1002-0,Double anions
mp-390,TiO2,True,False,2.0586,-3.508055451944444,[3.2],,10.1007/s10853-017-1334-9,Double anions
mp-390,TiO2,True,False,2.0586,-3.508055451944444,[3.2],,10.1007/s10853-018-2051-8,Double anions
mp-390,TiO2,True,False,2.0586,-3.508055451944444,[3.02],,10.1007/s10853-018-2051-8,Double anions
mp-390,TiO2,True,False,2.0586,-3.508055451944444,[2.85],,10.1007/s10853-018-2051-8,Double anions
mp-390,TiO2,True,False,2.0586,-3.508055451944444,[3.2],,10.1007/s10853-018-2565-0,Double anions
mp-390,TiO2,True,False,2.0586,-3.508055451944444,[3.2],,10.1007/s10853-020-04461-5,Double anions
mp-390,TiO2,True,False,2.0586,-3.508055451944444,[3.2],,10.1007/s10853-020-04610-w,Double anions
mp-390,TiO2,True,False,2.0586,-3.508055451944444,[3.62],,10.1007/s10854-012-0892-5,Double anions
mp-390,TiO2,True,False,2.0586,-3.508055451944444,[3.3],,10.1007/s10854-012-0892-5,Double anions
mp-390,TiO2,True,False,2.0586,-3.508055451944444,[3.2],,10.1007/s10854-012-0892-5,Double anions
mp-390,TiO2,True,False,2.0586,-3.508055451944444,[3.2],,10.1007/s10854-013-1205-3,Double anions
mp-390,TiO2,True,False,2.0586,-3.508055451944444,[3.2],,10.1007/s10854-014-2294-3,Double anions
mp-390,TiO2,True,False,2.0586,-3.508055451944444,[3.2],,10.1007/s10854-014-2434-9,Double anions
mp-390,TiO2,True,False,2.0586,-3.508055451944444,[3.0],,10.1007/s10854-015-2682-3,Double anions
mp-390,TiO2,True,False,2.0586,-3.508055451944444,[3.27],700,10.1007/s10854-015-3575-1,Double anions
mp-390,TiO2,True,False,2.0586,-3.508055451944444,[3.5],,10.1007/s10854-015-3598-7,Double anions
mp-390,TiO2,True,False,2.0586,-3.508055451944444,[0.06],,10.1007/s10854-015-3793-6,Double anions
mp-390,TiO2,True,False,2.0586,-3.508055451944444,[3.2],,10.1007/s10854-015-4121-x,Double anions
mp-390,TiO2,True,False,2.0586,-3.508055451944444,[3.2],,10.1007/s10854-015-4138-1,Double anions
mp-390,TiO2,True,False,2.0586,-3.508055451944444,[3.2],,10.1007/s10854-015-4161-2,Double anions
mp-390,TiO2,True,False,2.0586,-3.508055451944444,[2.78],,10.1007/s10854-015-4161-2,Double anions
mp-390,TiO2,True,False,2.0586,-3.508055451944444,[3.23],,10.1007/s10854-015-4161-2,Double anions
mp-390,TiO2,True,False,2.0586,-3.508055451944444,[3.28],,10.1007/s10854-016-4581-7,Double anions
mp-390,TiO2,True,False,2.0586,-3.508055451944444,[3.2],,10.1007/s10854-016-5134-9,Double anions
mp-390,TiO2,True,False,2.0586,-3.508055451944444,[3.018],,10.1007/s10854-016-5134-9,Double anions
mp-390,TiO2,True,False,2.0586,-3.508055451944444,[3.2],,10.1007/s10854-016-5449-6,Double anions
mp-390,TiO2,True,False,2.0586,-3.508055451944444,[3.2],,10.1007/s10854-016-5569-z,Double anions
mp-390,TiO2,True,False,2.0586,-3.508055451944444,[3.2],,10.1007/s10854-016-5837-y,Double anions
mp-390,TiO2,True,False,2.0586,-3.508055451944444,[3.35],,10.1007/s10854-016-5941-z,Double anions
mp-390,TiO2,True,False,2.0586,-3.508055451944444,[3.2],,10.1007/s10854-016-6082-0,Double anions
mp-390,TiO2,True,False,2.0586,-3.508055451944444,[3.12],,10.1007/s10854-017-6350-7,Double anions
mp-390,TiO2,True,False,2.0586,-3.508055451944444,[3.8],,10.1007/s10854-017-7008-1,Double anions
mp-390,TiO2,True,False,2.0586,-3.508055451944444,[3.6],,10.1007/s10854-017-7008-1,Double anions
mp-390,TiO2,True,False,2.0586,-3.508055451944444,[3.0],,10.1007/s10854-017-7008-1,Double anions
mp-390,TiO2,True,False,2.0586,-3.508055451944444,[3.2],,10.1007/s10854-017-7124-y,Double anions
mp-390,TiO2,True,False,2.0586,-3.508055451944444,[2.86],,10.1007/s10854-017-7382-8,Double anions
mp-390,TiO2,True,False,2.0586,-3.508055451944444,[3.2],,10.1007/s10854-017-7382-8,Double anions
mp-390,TiO2,True,False,2.0586,-3.508055451944444,[3.28],,10.1007/s10854-017-7382-8,Double anions
mp-390,TiO2,True,False,2.0586,-3.508055451944444,[3.2],,10.1007/s10854-017-7582-2,Double anions
mp-390,TiO2,True,False,2.0586,-3.508055451944444,[3.2],,10.1007/s10854-017-7760-2,Double anions
mp-390,TiO2,True,False,2.0586,-3.508055451944444,[3.2],,10.1007/s10854-017-7780-y,Double anions
mp-390,TiO2,True,False,2.0586,-3.508055451944444,[3.2],,10.1007/s10854-017-7969-0,Double anions
mp-390,TiO2,True,False,2.0586,-3.508055451944444,[3.2],,10.1007/s10854-017-8200-z,Double anions
mp-390,TiO2,True,False,2.0586,-3.508055451944444,[2.96],,10.1007/s10854-017-8214-6,Double anions
mp-390,TiO2,True,False,2.0586,-3.508055451944444,[3.2],,10.1007/s10854-017-8377-1,Double anions
mp-390,TiO2,True,False,2.0586,-3.508055451944444,[3.2],,10.1007/s10854-017-8515-9,Double anions
mp-390,TiO2,True,False,2.0586,-3.508055451944444,[2.96],,10.1007/s10854-018-8832-7,Double anions
mp-390,TiO2,True,False,2.0586,-3.508055451944444,[2.9],,10.1007/s10854-018-8860-3,Double anions
mp-390,TiO2,True,False,2.0586,-3.508055451944444,[3.2],,10.1007/s10854-018-8975-6,Double anions
mp-390,TiO2,True,False,2.0586,-3.508055451944444,[3.1],,10.1007/s10854-018-8996-1,Double anions
mp-390,TiO2,True,False,2.0586,-3.508055451944444,[3.2],,10.1007/s10854-018-9387-3,Double anions
mp-390,TiO2,True,False,2.0586,-3.508055451944444,[3.2],,10.1007/s10854-018-9529-7,Double anions
mp-390,TiO2,True,False,2.0586,-3.508055451944444,[3.2],,10.1007/s10854-018-9886-2,Double anions
mp-390,TiO2,True,False,2.0586,-3.508055451944444,[3.2],,10.1007/s10854-018-9922-2,Double anions
mp-390,TiO2,True,False,2.0586,-3.508055451944444,[3.08],,10.1007/s10854-018-9922-2,Double anions
mp-390,TiO2,True,False,2.0586,-3.508055451944444,[3.2],,10.1007/s10854-018-9953-8,Double anions
mp-390,TiO2,True,False,2.0586,-3.508055451944444,[3.2],,10.1007/s10854-019-00720-7,Double anions
mp-390,TiO2,True,False,2.0586,-3.508055451944444,[3.3],,10.1007/s10854-019-01026-4,Double anions
mp-390,TiO2,True,False,2.0586,-3.508055451944444,[3.2],,10.1007/s10854-019-01095-5,Double anions
mp-390,TiO2,True,False,2.0586,-3.508055451944444,[3.2],,10.1007/s10854-019-02023-3,Double anions
mp-390,TiO2,True,False,2.0586,-3.508055451944444,[3.11],,10.1007/s10854-019-02248-2,Double anions
mp-390,TiO2,True,False,2.0586,-3.508055451944444,[3.2],,10.1007/s10854-019-02268-y,Double anions
mp-390,TiO2,True,False,2.0586,-3.508055451944444,[1.8],,10.1007/s10854-019-02529-w,Double anions
mp-390,TiO2,True,False,2.0586,-3.508055451944444,[3.29],,10.1007/s10854-020-04300-y,Double anions
mp-390,TiO2,True,False,2.0586,-3.508055451944444,[3.2],,10.1007/s10876-016-1049-0,Double anions
mp-390,TiO2,True,False,2.0586,-3.508055451944444,[3.2],,10.1007/s10876-017-1250-9,Double anions
mp-390,TiO2,True,False,2.0586,-3.508055451944444,[3.27],,10.1007/s10876-019-01556-1,Double anions
mp-390,TiO2,True,False,2.0586,-3.508055451944444,[3.2],,10.1007/s10904-018-0872-1,Double anions