mpids,formula,is_stable,theoretical,band_gap,formation_energy_per_atom,Value,Temperature_raw_value,DOI,compound_type
mp-390,TiO2,True,False,2.0586,-3.508055451944444,[3.2],,10.1186/s11671-015-1061-6,Double anions
mp-390,TiO2,True,False,2.0586,-3.508055451944444,[2.86],,10.1186/s11671-015-1061-6,Double anions
mp-390,TiO2,True,False,2.0586,-3.508055451944444,[3.86],,10.1186/s11671-015-1061-6,Double anions
mp-390,TiO2,True,False,2.0586,-3.508055451944444,[3.2],,10.1186/s11671-015-1089-7,Double anions
mp-390,TiO2,True,False,2.0586,-3.508055451944444,[3.6],300,10.1186/s11671-017-2247-x,Double anions
mp-390,TiO2,True,False,2.0586,-3.508055451944444,[2.47],,10.1186/s11671-017-2269-4,Double anions
mp-390,TiO2,True,False,2.0586,-3.508055451944444,[3.2],,10.1186/s11671-018-2504-7,Double anions
mp-390,TiO2,True,False,2.0586,-3.508055451944444,[3.2],,10.1186/s11671-019-3041-8,Double anions
mp-390,TiO2,True,False,2.0586,-3.508055451944444,[3.2],,10.3103/S0003701X16040149,Double anions
mp-390,TiO2,True,False,2.0586,-3.508055451944444,[3.02],,10.3938/jkps.72.604,Double anions
mp-390,TiO2,True,False,2.0586,-3.508055451944444,[3.033],,10.1103/PhysRevB.60.2333,Double anions
mp-390,TiO2,True,False,2.0586,-3.508055451944444,[3.038],,10.1103/PhysRevB.60.2333,Double anions
mp-390,TiO2,True,False,2.0586,-3.508055451944444,[3.062],,10.1103/PhysRevB.60.2333,Double anions
mp-390,TiO2,True,False,2.0586,-3.508055451944444,[3.049],,10.1103/PhysRevB.60.2333,Double anions
mp-390,TiO2,True,False,2.0586,-3.508055451944444,[3.057],,10.1103/PhysRevB.60.2333,Double anions
mp-390,TiO2,True,False,2.0586,-3.508055451944444,[3.101],,10.1103/PhysRevB.60.2333,Double anions
mp-390,TiO2,True,False,2.0586,-3.508055451944444,[3.0],,10.1021/jacs.5b03986,Double anions
mp-390,TiO2,True,False,2.0586,-3.508055451944444,[3.3],,10.1021/jacs.5b03986,Double anions
mp-390,TiO2,True,False,2.0586,-3.508055451944444,[3.05],,10.1021/jacs.5b03986,Double anions
mp-390,TiO2,True,False,2.0586,-3.508055451944444,[3.5],,10.1021/jacs.5b03986,Double anions
mp-390,TiO2,True,False,2.0586,-3.508055451944444,[3.75],,10.1021/jacs.5b03986,Double anions
mp-390,TiO2,True,False,2.0586,-3.508055451944444,[2.9],,10.1021/jacs.5b03986,Double anions
mp-390,TiO2,True,False,2.0586,-3.508055451944444,[3.2],,10.1016/S0925-8388(99)00422-3,Double anions
mp-390,TiO2,True,False,2.0586,-3.508055451944444,[3.25],,10.1016/S0925-8388(99)00422-3,Double anions
mp-390,TiO2,True,False,2.0586,-3.508055451944444,[3.3],,10.1016/S0925-8388(99)00422-3,Double anions
mp-13019,NaLa2TaO6,True,False,3.979199999999999,-3.504750970871265,[4.5],,10.1021/cm702303r,Double anions
mp-13664,Sr2Ta2O7,True,False,2.928,-3.499453334060604,[4.43],,10.1039/c4dt02335h,Double anions
mp-13664,Sr2Ta2O7,True,False,2.928,-3.499453334060604,[1.0],,10.1039/c7ra07113b,Double anions
mp-13664,Sr2Ta2O7,True,False,2.928,-3.499453334060604,[2.88],,10.1039/c7ra07113b,Double anions
mp-13664,Sr2Ta2O7,True,False,2.928,-3.499453334060604,[4.5],,10.1039/c8cy00283e,Double anions
mp-13664,Sr2Ta2O7,True,False,2.928,-3.499453334060604,[3.01],,10.1039/c9qi00506d,Double anions
mp-13664,Sr2Ta2O7,True,False,2.928,-3.499453334060604,[4.5],,10.1039/c3ce41315b,Double anions
mp-13664,Sr2Ta2O7,True,False,2.928,-3.499453334060604,[4.6],,10.1039/c5cs00769k,Double anions
mp-13664,Sr2Ta2O7,True,False,2.928,-3.499453334060604,[2.3],,10.1039/c2cp43524a,Double anions
mp-13664,Sr2Ta2O7,True,False,2.928,-3.499453334060604,[4.6],,10.1007/s11164-008-0021-5,Double anions
mp-3349,Sr3Ti2O7,True,False,1.8404999999999991,-3.4925284151388603,[3.14],,10.1039/c4ra11985a,Double anions
mp-3349,Sr3Ti2O7,True,False,1.8404999999999991,-3.4925284151388603,[3.26],,10.1002/1521-3749(200103)627:3<378::AID-ZAAC378>3.0.CO;2-J,Double anions
mp-5777,BaTiO3,True,False,2.2929999999999997,-3.492277977666666,[3.03],,10.1016/j.jece.2017.04.038,Oxides
mp-5777,BaTiO3,True,False,2.2929999999999997,-3.492277977666666,[3.22],,10.1016/j.matpr.2018.06.597,Oxides
mp-5777,BaTiO3,True,False,2.2929999999999997,-3.492277977666666,[3.9],,10.1016/j.optmat.2013.07.034,Oxides
mp-5777,BaTiO3,True,False,2.2929999999999997,-3.492277977666666,[3.8],400,10.1016/j.physb.2015.03.010,Oxides
mp-5777,BaTiO3,True,False,2.2929999999999997,-3.492277977666666,[3.58],,10.1016/j.tsf.2007.11.123,Oxides
mp-5777,BaTiO3,True,False,2.2929999999999997,-3.492277977666666,[3.6],,10.1016/j.tsf.2007.11.123,Oxides
mp-5777,BaTiO3,True,False,2.2929999999999997,-3.492277977666666,[3.64],,10.1016/j.tsf.2008.04.026,Oxides
mp-5777,BaTiO3,True,False,2.2929999999999997,-3.492277977666666,[3.92],,10.1016/j.tsf.2010.05.023,Oxides
mp-5777,BaTiO3,True,False,2.2929999999999997,-3.492277977666666,[3.4],,10.1016/j.tsf.2011.08.014,Oxides
mp-5777,BaTiO3,True,False,2.2929999999999997,-3.492277977666666,[4.75],,10.1016/j.ssc.2006.11.007,Oxides
mp-5777,BaTiO3,True,False,2.2929999999999997,-3.492277977666666,[3.18],,10.1039/c5ra00798d,Oxides
mp-5777,BaTiO3,True,False,2.2929999999999997,-3.492277977666666,[3.8],,10.1039/c7cp05122k,Oxides
mp-5777,BaTiO3,True,False,2.2929999999999997,-3.492277977666666,[3.15],,10.1039/c7dt00724h,Oxides
mp-5777,BaTiO3,True,False,2.2929999999999997,-3.492277977666666,[3.16],,10.1039/c9an01395d,Oxides
mp-5777,BaTiO3,True,False,2.2929999999999997,-3.492277977666666,[3.18],,10.1039/d0ra07276a,Oxides
mp-5777,BaTiO3,True,False,2.2929999999999997,-3.492277977666666,[1.7],,10.1039/c0cp02424d,Oxides
mp-5777,BaTiO3,True,False,2.2929999999999997,-3.492277977666666,[3.25],,10.1039/c4nj02272f,Oxides
mp-5777,BaTiO3,True,False,2.2929999999999997,-3.492277977666666,[3.2],,10.1039/c4ra13642j,Oxides
mp-5777,BaTiO3,True,False,2.2929999999999997,-3.492277977666666,[3.3],,10.1039/c4ra13642j,Oxides
mp-5777,BaTiO3,True,False,2.2929999999999997,-3.492277977666666,[3.26],,10.1039/c4ta00877d,Oxides
mp-5777,BaTiO3,True,False,2.2929999999999997,-3.492277977666666,[3.0],,10.1039/c5cs00769k,Oxides
mp-5777,BaTiO3,True,False,2.2929999999999997,-3.492277977666666,[3.2],,10.1039/c5tc02214b,Oxides
mp-5777,BaTiO3,True,False,2.2929999999999997,-3.492277977666666,[3.2],,10.1039/c7cp00020k,Oxides
mp-5777,BaTiO3,True,False,2.2929999999999997,-3.492277977666666,[3.0],,10.1039/c7qi00590c,Oxides
mp-5777,BaTiO3,True,False,2.2929999999999997,-3.492277977666666,[3.0],,10.1039/c7se00277g,Oxides
mp-5777,BaTiO3,True,False,2.2929999999999997,-3.492277977666666,[3.27],,10.1039/c9nr08800h,Oxides
mp-5777,BaTiO3,True,False,2.2929999999999997,-3.492277977666666,[3.4],,10.1039/d0dt01321h,Oxides
mp-5777,BaTiO3,True,False,2.2929999999999997,-3.492277977666666,[3.2],,10.1039/b706949a,Oxides
mp-5777,BaTiO3,True,False,2.2929999999999997,-3.492277977666666,[3.05],300,10.1039/c6cp06244j,Oxides
mp-5777,BaTiO3,True,False,2.2929999999999997,-3.492277977666666,[3.3],,10.1039/c6tc03939a,Oxides
mp-5777,BaTiO3,True,False,2.2929999999999997,-3.492277977666666,[3.2],,10.1039/c9se00526a,Oxides
mp-5777,BaTiO3,True,False,2.2929999999999997,-3.492277977666666,[3.5],,10.1039/c9se00526a,Oxides
mp-5777,BaTiO3,True,False,2.2929999999999997,-3.492277977666666,[3.0],,10.1039/c9ce00189a,Oxides
mp-5777,BaTiO3,True,False,2.2929999999999997,-3.492277977666666,[3.44],,10.1007/s10854-020-03452-1,Oxides
mp-5777,BaTiO3,True,False,2.2929999999999997,-3.492277977666666,[3.1],,10.1007/s10832-016-0044-z,Oxides
mp-5777,BaTiO3,True,False,2.2929999999999997,-3.492277977666666,[3.22],,10.1007/s10832-016-0044-z,Oxides
mp-5777,BaTiO3,True,False,2.2929999999999997,-3.492277977666666,[3.0],300,10.1007/s10832-016-0044-z,Oxides
mp-5777,BaTiO3,True,False,2.2929999999999997,-3.492277977666666,[3.2],,10.1007/s10971-013-3073-y,Oxides
mp-5777,BaTiO3,True,False,2.2929999999999997,-3.492277977666666,[3.84],300,10.1007/s11595-011-0333-4,Oxides
mp-5777,BaTiO3,True,False,2.2929999999999997,-3.492277977666666,[0.78],,10.1038/s41598-017-06396-5,Oxides
mp-5777,BaTiO3,True,False,2.2929999999999997,-3.492277977666666,[3.5],,10.1007/s10854-014-2639-y,Oxides
mp-5777,BaTiO3,True,False,2.2929999999999997,-3.492277977666666,[3.0],,10.1007/s10854-015-3162-5,Oxides
mp-5777,BaTiO3,True,False,2.2929999999999997,-3.492277977666666,[3.2],,10.1038/s41566-020-00701-x,Oxides
mp-5777,BaTiO3,True,False,2.2929999999999997,-3.492277977666666,[3.1],,10.1007/s00339-010-5599-y,Oxides
mp-5777,BaTiO3,True,False,2.2929999999999997,-3.492277977666666,[3.14],,10.1007/s00339-012-7331-6,Oxides
mp-5777,BaTiO3,True,False,2.2929999999999997,-3.492277977666666,[3.36],,10.1007/s00339-012-7331-6,Oxides
mp-5777,BaTiO3,True,False,2.2929999999999997,-3.492277977666666,[4.092],"1,000",10.1007/s10854-013-1620-5,Oxides
mp-5777,BaTiO3,True,False,2.2929999999999997,-3.492277977666666,[3.2],,10.1007/s10854-016-4573-7,Oxides
mp-5777,BaTiO3,True,False,2.2929999999999997,-3.492277977666666,[3.3],,10.1007/s10971-014-3424-3,Oxides
mp-5777,BaTiO3,True,False,2.2929999999999997,-3.492277977666666,[3.2],,10.1007/s11051-015-2930-8,Oxides
mp-5777,BaTiO3,True,False,2.2929999999999997,-3.492277977666666,[1.85],,10.1007/s12648-016-0848-3,Oxides
mp-5777,BaTiO3,True,False,2.2929999999999997,-3.492277977666666,[3.2],,10.1007/s12648-016-0848-3,Oxides
mp-5777,BaTiO3,True,False,2.2929999999999997,-3.492277977666666,[1.72],,10.1038/s41597-020-0418-6,Oxides
mp-5777,BaTiO3,True,False,2.2929999999999997,-3.492277977666666,[3.74],,10.1007/s00339-014-8471-7,Oxides
mp-5777,BaTiO3,True,False,2.2929999999999997,-3.492277977666666,[3.6],,10.1007/s00339-014-8471-7,Oxides
mp-5777,BaTiO3,True,False,2.2929999999999997,-3.492277977666666,[3.26],,10.1007/s00339-014-8471-7,Oxides
mp-5777,BaTiO3,True,False,2.2929999999999997,-3.492277977666666,[3.2],,10.1007/s10854-016-4895-5,Oxides
mp-5777,BaTiO3,True,False,2.2929999999999997,-3.492277977666666,[5.0],,10.1007/s10854-018-9163-4,Oxides
mp-5777,BaTiO3,True,False,2.2929999999999997,-3.492277977666666,[3.23],,10.1007/s10854-020-04199-5,Oxides
mp-5777,BaTiO3,True,False,2.2929999999999997,-3.492277977666666,[3.77],,10.1007/s10854-020-04514-0,Oxides
mp-5777,BaTiO3,True,False,2.2929999999999997,-3.492277977666666,[3.2],,10.1007/s10854-020-04514-0,Oxides
mp-5777,BaTiO3,True,False,2.2929999999999997,-3.492277977666666,[3.3],,10.1007/s10971-010-2250-5,Oxides
mp-5777,BaTiO3,True,False,2.2929999999999997,-3.492277977666666,[3.0],,10.1007/s11356-019-07215-2,Oxides
mp-5777,BaTiO3,True,False,2.2929999999999997,-3.492277977666666,[1.95],,10.1007/s11356-019-07215-2,Oxides
mp-5777,BaTiO3,True,False,2.2929999999999997,-3.492277977666666,[1.86],,10.1007/s11356-019-07215-2,Oxides
mp-5777,BaTiO3,True,False,2.2929999999999997,-3.492277977666666,[2.8],,10.1007/s10800-007-9333-1,Oxides
mp-5777,BaTiO3,True,False,2.2929999999999997,-3.492277977666666,[3.2],,10.1007/s10853-009-3472-1,Oxides
mp-5777,BaTiO3,True,False,2.2929999999999997,-3.492277977666666,[3.75],,10.1007/s10853-017-1773-3,Oxides
mp-5777,BaTiO3,True,False,2.2929999999999997,-3.492277977666666,[3.38],,10.1007/s10854-017-7212-z,Oxides
mp-5777,BaTiO3,True,False,2.2929999999999997,-3.492277977666666,[3.1],,10.1016/S0925-8388(99)00422-3,Oxides
mp-17715,SrTa2O6,True,False,3.2307,-3.487587180518501,[4.49],,10.1016/j.tsf.2016.12.003,Double anions
mp-680380,Ca2Ta2O7,True,False,3.3532,-3.483381799774892,[4.4],,10.1007/s10853-016-0005-6,Double anions
mp-769582,Sr5Ta4O15,True,True,3.044399999999999,-3.477598544763891,[4.75],,10.1039/c2pp25200g,Chalcogenides
mp-769582,Sr5Ta4O15,True,True,3.044399999999999,-3.477598544763891,[4.75],,10.1007/s11164-008-0021-5,Chalcogenides
mp-1218879,Sr2Al2SiO7,True,True,4.2023,-3.472123711666666,[4.07],,10.1016/j.optmat.2014.04.037,Double anions
mp-1218879,Sr2Al2SiO7,True,True,4.2023,-3.472123711666666,[3.171],,10.1007/s10854-018-0392-3,Double anions
mp-1218879,Sr2Al2SiO7,True,True,4.2023,-3.472123711666666,[4.15],,10.1007/s10854-018-0392-3,Double anions
mp-1218879,Sr2Al2SiO7,True,True,4.2023,-3.472123711666666,[4.61],,10.1007/s10854-018-0392-3,Double anions
mp-3788,SrAl4O7,True,False,3.7508,-3.4642884175,[6.3],4,10.1039/c5cp01095k,Chalcogenides
mp-1227499,Ca2Al2SiO7,False,True,4.3406,-3.464139528749999,[6.0],,10.1016/j.optmat.2014.04.037,Double anions
mp-5512,Sr4Al14O25,False,False,4.157500000000001,-3.461146685581395,[6.3],,10.1039/c5cp01095k,Double anions
mp-5512,Sr4Al14O25,False,False,4.157500000000001,-3.461146685581395,[3.701],,10.1039/c7ra07970b,Double anions
mp-3094,SrAl2O4,True,False,4.142,-3.458835004642857,[4.8],,10.1016/j.matpr.2020.01.329,Double anions
mp-3094,SrAl2O4,True,False,4.142,-3.458835004642857,[4.5],,10.1016/j.optmat.2009.01.016,Double anions
mp-3094,SrAl2O4,True,False,4.142,-3.458835004642857,[6.52],,10.1016/j.optmat.2014.06.032,Double anions
mp-3094,SrAl2O4,True,False,4.142,-3.458835004642857,[6.6],,10.1039/c5cs00582e,Double anions
mp-3094,SrAl2O4,True,False,4.142,-3.458835004642857,[6.3],,10.1007/s10853-017-1027-4,Double anions
mp-3094,SrAl2O4,True,False,4.142,-3.458835004642857,[3.8],,10.1007/s10853-016-0471-x,Double anions
mp-3094,SrAl2O4,True,False,4.142,-3.458835004642857,[7.61],,10.1007/s10853-016-0471-x,Double anions
mp-3094,SrAl2O4,True,False,4.142,-3.458835004642857,[0.08],,10.1007/s10853-016-0471-x,Double anions
mp-3094,SrAl2O4,True,False,4.142,-3.458835004642857,[3.06],,10.1134/S003602442006031X,Double anions
mp-2963,CaAl2O4,False,False,4.5894,-3.4544079598809523,[1.6],,10.1016/j.optmat.2014.12.010,Double anions
mp-4202,BaAl2O4,True,False,4.1027000000000005,-3.448150932499999,[4.0],,10.1016/j.matpr.2019.06.573,Double anions
mp-4202,BaAl2O4,True,False,4.1027000000000005,-3.448150932499999,[6.5],,10.1016/j.optmat.2019.03.052,Double anions
mp-4429,CaSiO3,True,False,4.8413,-3.4480482148333342,[5.5],,10.1016/j.physb.2017.10.010,Chalcogenides
mp-4429,CaSiO3,True,False,4.8413,-3.4480482148333342,[5.43],,10.1021/ic062120z,Chalcogenides
mp-4429,CaSiO3,True,False,4.8413,-3.4480482148333342,[5.52],,10.1021/ic062120z,Chalcogenides
mp-5532,Sr2TiO4,True,False,1.9141999999999992,-3.443433267619047,[3.32],,10.1016/j.jece.2020.103791,Double anions
mp-5532,Sr2TiO4,True,False,1.9141999999999992,-3.443433267619047,[1.8],,10.1016/j.tsf.2013.06.067,Double anions
mp-5532,Sr2TiO4,True,False,1.9141999999999992,-3.443433267619047,[0.25],,10.1016/j.tsf.2013.06.067,Double anions
mp-5532,Sr2TiO4,True,False,1.9141999999999992,-3.443433267619047,[3.49],,10.1039/c9ta01882d,Double anions
mp-5532,Sr2TiO4,True,False,1.9141999999999992,-3.443433267619047,[0.3],,10.1039/c3ta14475e,Double anions
mp-5532,Sr2TiO4,True,False,1.9141999999999992,-3.443433267619047,[3.41],,10.1002/1521-3749(200103)627:3<378::AID-ZAAC378>3.0.CO;2-J,Double anions
mp-561103,BaTa2O6,True,False,2.1161,-3.439499560055555,[3.8],,10.1039/c7cc02687k,Double anions
mp-504554,Ba5Ta4O15,True,False,3.0865,-3.439217441430571,[4.05],,10.1016/j.physb.2018.04.032,Oxides
mp-504554,Ba5Ta4O15,True,False,3.0865,-3.439217441430571,[4.0],,10.1016/j.physb.2018.04.032,Oxides
mp-504554,Ba5Ta4O15,True,False,3.0865,-3.439217441430571,[2.0],,10.1016/j.physb.2018.04.032,Oxides
mp-504554,Ba5Ta4O15,True,False,3.0865,-3.439217441430571,[4.5],,10.1039/c4sc01127a,Oxides
mp-504554,Ba5Ta4O15,True,False,3.0865,-3.439217441430571,[4.5],,10.1039/c5cp07115a,Oxides
mp-504554,Ba5Ta4O15,True,False,3.0865,-3.439217441430571,[4.1],,10.1039/c8cs00396c,Oxides
mp-504554,Ba5Ta4O15,True,False,3.0865,-3.439217441430571,[4.06],,10.1039/c2pp25200g,Oxides
mp-504554,Ba5Ta4O15,True,False,3.0865,-3.439217441430571,[2.2],,10.1039/c5cs00769k,Oxides
mp-504554,Ba5Ta4O15,True,False,3.0865,-3.439217441430571,[3.81],,10.1039/c6ra10603j,Oxides
mp-504554,Ba5Ta4O15,True,False,3.0865,-3.439217441430571,[3.59],,10.1039/c6ra10603j,Oxides
mp-504554,Ba5Ta4O15,True,False,3.0865,-3.439217441430571,[3.0],,10.1039/c6ra10603j,Oxides
mp-504554,Ba5Ta4O15,True,False,3.0865,-3.439217441430571,[4.3],,10.1039/c7dt04452f,Oxides
mp-504554,Ba5Ta4O15,True,False,3.0865,-3.439217441430571,[4.5],,10.1039/c7ta09136b,Oxides
mp-1218531,SrAl12O19,False,True,4.4592,-3.43836354,[7.76],,10.1039/c5cp01095k,Double anions
mp-1218531,SrAl12O19,False,True,4.4592,-3.43836354,[7.0],,10.1039/b305139k,Double anions
mp-532016,Ca12Al14O33,False,True,2.1738,-3.43658640059322,[6.0],300,10.1007/s00339-016-0654-y,Double anions
mp-532016,Ca12Al14O33,False,True,2.1738,-3.43658640059322,[4.42],,10.1007/s00339-016-0654-y,Double anions
mp-1220785,NaLaTi2O6,False,True,2.0801,-3.436417339804598,[3.28],,10.1007/s10854-015-3809-2,Double anions
mp-14485,LaTa7O19,True,False,3.1119,-3.433544945234568,[4.14],,10.1039/c3cy00557g,Oxides
mp-6548,K2La2Ti3O10,False,False,1.733499999999999,-3.431758464970588,[3.05],,10.1016/j.jssc.2004.08.043,Double anions
mp-541462,SrTa4O11,True,False,3.5232,-3.431262843708332,[4.0],,10.1039/c8cy00283e,Chalcogenides
mp-6709,Ca3La3(BO3)5,True,False,4.1362,-3.425501466570513,[7.65],,10.1039/c9ra00381a,Oxides
mp-769271,Sr4Ta2O9,True,True,4.1943,-3.424987994977778,[4.55],,10.1039/c8ta06934d,Double anions
mp-28232,MgTi2O5,True,False,2.7175,-3.422544152083334,[3.4],,10.1039/c3cc43435d,Double anions
mp-28232,MgTi2O5,True,False,2.7175,-3.422544152083334,[3.4],,10.1039/c5ra20992g,Double anions
mp-28232,MgTi2O5,True,False,2.7175,-3.422544152083334,[3.45],,10.1039/c5ra20992g,Double anions
mp-6325,Ba3MgTa2O9,True,False,3.2733,-3.413043947644446,[4.28],,10.1016/j.jssc.2007.12.007,Double anions
mp-7048,Al2O3,False,False,4.4553,-3.409391490000001,[2.94],,10.1016/j.cej.2019.04.079,Double anions
mp-7048,Al2O3,False,False,4.4553,-3.409391490000001,[8.8],,10.1016/j.matpr.2017.07.283,Double anions
mp-7048,Al2O3,False,False,4.4553,-3.409391490000001,[8.8],,10.1016/j.optmat.2011.02.043,Double anions
mp-7048,Al2O3,False,False,4.4553,-3.409391490000001,[9.1],,10.1016/j.optmat.2016.01.003,Double anions
mp-7048,Al2O3,False,False,4.4553,-3.409391490000001,[6.0],,10.1016/j.optmat.2018.06.033,Double anions
mp-7048,Al2O3,False,False,4.4553,-3.409391490000001,[1.94],,10.1016/j.physb.2010.05.081,Double anions
mp-7048,Al2O3,False,False,4.4553,-3.409391490000001,[1.8],,10.1016/j.physb.2010.05.081,Double anions
mp-7048,Al2O3,False,False,4.4553,-3.409391490000001,[8.8],,10.1016/j.physb.2013.11.059,Double anions
mp-7048,Al2O3,False,False,4.4553,-3.409391490000001,[8.8],,10.1016/j.physb.2016.07.025,Double anions
mp-7048,Al2O3,False,False,4.4553,-3.409391490000001,[10.0],,10.1016/j.tsf.2003.09.032,Double anions
mp-7048,Al2O3,False,False,4.4553,-3.409391490000001,[6.2],,10.1016/j.tsf.2006.01.014,Double anions
mp-7048,Al2O3,False,False,4.4553,-3.409391490000001,[9.0],,10.1016/j.tsf.2008.03.017,Double anions
mp-7048,Al2O3,False,False,4.4553,-3.409391490000001,[8.7],,10.1016/j.tsf.2009.03.184,Double anions
mp-7048,Al2O3,False,False,4.4553,-3.409391490000001,[5.8],,10.1016/j.tsf.2010.03.137,Double anions
mp-7048,Al2O3,False,False,4.4553,-3.409391490000001,[6.8],,10.1016/j.tsf.2010.11.080,Double anions
mp-7048,Al2O3,False,False,4.4553,-3.409391490000001,[8.8],,10.1016/j.tsf.2011.03.127,Double anions
mp-7048,Al2O3,False,False,4.4553,-3.409391490000001,[6.2],,10.1016/j.tsf.2011.03.127,Double anions
mp-7048,Al2O3,False,False,4.4553,-3.409391490000001,[9.1],300,10.1016/j.tsf.2011.11.040,Double anions
mp-7048,Al2O3,False,False,4.4553,-3.409391490000001,[9.2],,10.1016/j.tsf.2012.03.026,Double anions
mp-7048,Al2O3,False,False,4.4553,-3.409391490000001,[9.4],,10.1016/j.tsf.2013.02.076,Double anions
mp-7048,Al2O3,False,False,4.4553,-3.409391490000001,[9.0],,10.1016/j.tsf.2014.03.071,Double anions
mp-7048,Al2O3,False,False,4.4553,-3.409391490000001,[9.0],1000,10.1016/j.tsf.2015.10.036,Double anions
mp-7048,Al2O3,False,False,4.4553,-3.409391490000001,[9.0],,10.1016/j.tsf.2015.11.037,Double anions
mp-7048,Al2O3,False,False,4.4553,-3.409391490000001,[8.8],,10.1016/j.tsf.2015.12.044,Double anions
mp-7048,Al2O3,False,False,4.4553,-3.409391490000001,[9.0],1000,10.1016/j.tsf.2016.02.046,Double anions
mp-7048,Al2O3,False,False,4.4553,-3.409391490000001,[6.2],,10.1016/j.tsf.2016.03.060,Double anions
mp-7048,Al2O3,False,False,4.4553,-3.409391490000001,[1.35],,10.1016/j.tsf.2016.07.002,Double anions
mp-7048,Al2O3,False,False,4.4553,-3.409391490000001,[6.91],,10.1016/j.tsf.2016.09.026,Double anions
mp-7048,Al2O3,False,False,4.4553,-3.409391490000001,[6.52],,10.1016/j.tsf.2016.09.026,Double anions