formula,mpids,is_stable,theoretical,band_gap,formation_energy_per_atom,Value,DOI,compound_type,Category_count
LaWN3,mp-989524,True,True,1.2096,-1.244283644250001,1.5405,10.1039/c5tc04172d,Nitrides,1
CsPSe6,mp-1225967,True,True,1.6167,-0.435261009043898,1.9,10.1021/cm504436v,Chalcogenides,1
Sr3V2O8,mp-19386,True,False,3.676,-3.01776698923077,3.45,10.1039/c2ra20937c,Oxides,1
GeH4,mp-1078667,False,True,1.142199999999999,0.257843023,1.51,10.1016/j.cap.2013.05.005,Hydrides,1
BaCO3,mp-5504,True,False,4.397399999999999,-2.683242691500004,4.61,10.1007/s10854-019-00813-3,Oxides,1
La2Pd2O5,mp-560340,True,False,1.179,-2.572202741111114,1.342,10.1007/s12034-020-02115-5,Oxides,1
Cs2Al2B2O7,mp-1019602,True,False,4.249,-2.976087887126436,4.13,10.1039/b917907k,Oxides,1
Li2In2SiSe6,mp-1191817,False,False,1.8159,-1.00564398809659,2.54,10.1021/ic300604a,Silicides,2
TiOF2,mp-1216625,False,True,2.054999999999999,-3.569921060833334,3.145,10.1039/c1cc14453g,Halides,1
Ca2CdAs2,mp-1095180,True,False,0.8529999999999991,-0.9200470659999992,0.95,10.1021/ic2008254,Arsenides,1
Sm2Zr2O7,mp-4408,True,False,3.0741,-3.85569428090909,2.9,10.1038/s41598-017-06725-8,Oxides,1
K2Se,mp-8426,True,False,2.0925,-1.239938295614582,2.035,10.1007/s10853-016-9969-5,Chalcogenides,1
La2Ti2O7,mp-12192,True,False,2.928499999999999,-3.784009469469697,3.4,10.1016/j.cej.2011.01.035,Oxides,1
CaIn2O4,mp-22766,True,True,2.020799999999999,-2.392656165476187,3.785,10.1016/j.optmat.2006.06.010,Oxides,1
La5Ti2AgS5O7,mp-555253,True,False,1.5072,-3.061267943791667,2.05,10.1039/c6nr06541d,Chalcogenides,2
BaTiF6,mp-8291,True,False,4.3236,-3.976591936041666,3.03,10.1016/j.jece.2017.04.038,Halides,1
Pr2MnNiO6,mp-1209751,True,True,1.6564,-2.760933286626437,1.0,10.1016/j.jssc.2004.03.031,Oxides,1
Rb2Cd3Te4,mp-29901,True,False,1.4415,-0.863228203518516,2.3,10.1021/ic010069n,Chalcogenides,1
Tb4GaSbS9,mp-1202576,True,False,2.0116,-1.842492822777776,2.44,10.1134/S0020168511010109,Antimonides,2
GaN,mp-804,True,False,1.726499999999999,-0.670049406875,3.4,10.1016/j.cej.2020.126199,Nitrides,1
Li3ScN2,mp-542435,True,False,2.401399999999999,-1.049828191874998,2.9,10.1016/j.molstruc.2013.10.009,Nitrides,1
Fe2O3,mp-565814,False,False,1.3902,-1.635792457249999,2.2,10.1016/j.cej.2011.01.079,Oxides,1
Zn2GeO4,mp-5909,True,False,2.2752,-1.969291861428572,4.5,10.1016/j.cej.2012.12.031,Oxides,1
Ag3AsS3,mp-561620,True,False,1.627799999999999,-0.159635012633925,2.0835,10.1016/S0925-8388(99)00422-3,Arsenides,2
TiTe3O8,mp-5214,False,False,2.7479,-1.99700330111111,3.37,10.1039/c7tc05382g,Chalcogenides,2
BaCeO3,mp-3187,True,False,2.2207,-3.589836753000001,2.585,10.1016/j.ijhydene.2018.07.007,Oxides,1
Cs2Cd3Te4,mp-567386,True,False,1.558699999999999,-0.8827856311111091,2.48,10.1016/S0925-8388(00)00795-7,Chalcogenides,1
Ba2FeSbS5,mp-1199946,False,False,0.5309,-1.43033947361111,0.93,10.1021/ja1111095,Antimonides,2
CdSe,mp-1070,True,False,0.5724,-0.837606193671875,1.74,10.1016/j.cej.2014.05.106,Chalcogenides,1
LaGaO3,mp-5837,False,False,3.3483,-3.0979300295,4.08,10.1039/c6ra21693e,Oxides,1
Rb3Na(MoO4)2,mp-1104938,True,False,4.5827,-2.188677270991379,4.84,10.1016/j.jallcom.2014.05.086,Oxides,1
Tl2TeBr6,mp-31076,True,False,2.1632,-0.981408941481483,2.06,10.1002/1099-0682(200109),Halides,2
SrPbO3,mp-20489,True,False,0.7941,-2.155550595499999,1.78,10.1016/j.solidstatesciences.2016.02.010,Oxides,1
H2S,mp-696805,True,False,4.3246,-0.1704340646875,0.5037,10.1016/j.tsf.2005.11.072,Chalcogenides,2
MoCl3,mp-568394,False,True,0.599699999999999,-0.9991047621875012,0.56,10.1039/c4cs00102h,Halides,1
Ba2LiReO6,mp-6270,True,False,1.8198,-2.741621015583333,2.42,10.1007/s00894-020-04421-5,Oxides,1
Zn6S5Cl2,mp-1215990,False,True,1.5051,-0.9020160128846152,2.71,10.1021/cm1023103,Halides,2
Li5SiN3,mp-686208,True,True,2.159999999999999,-0.8706298930324081,2.51,10.1007/s10008-016-3131-9,Silicides,2
Sr3Sc2Cu2S2O5,mp-15900,False,False,1.2847,-2.7222874871428573,2.4,10.1007/s10854-019-01380-3,Chalcogenides,2
Cs2PbBr6,mp-2647124,False,True,0.5108,-1.479107087701149,1.6,10.1039/c8ee03559h,Halides,1
Zn3Mo2O9,mp-29461,False,False,3.1649,-1.8923423817857152,2.86,10.1016/j.optmat.2019.109570,Oxides,1
Na3La2(PO4)3,mp-2715259,False,True,4.4521,-3.065168122403325,3.86,10.1039/c8tc06119j,Oxides,1
CuSbS2,mp-4468,True,False,0.722699999999999,-0.30408631140625,1.5,10.1016/j.physb.2018.02.030,Antimonides,2
Sm2Ti2S2O5,mp-5999,True,False,0.779899999999999,-3.293462144242426,2.8,10.1039/c3cy20853b,Chalcogenides,2
FeOF,mp-758560,False,True,1.1941,-2.111673069166666,1.23,10.1039/d0cp01767a,Halides,1
TlCl,mp-571079,True,False,2.5181,-1.325821314166667,2.55,10.1016/j.physb.2011.02.014,Halides,1
Ta3N5,mp-27488,True,False,1.214099999999999,-1.286734426343752,2.1,10.1016/j.cej.2020.126165,Nitrides,1
NaSr3Be3B3O9F4,mp-1192032,False,False,4.7554,-3.28659885255997,4.82,10.1016/j.optmat.2015.07.007,Halides,2
Tl2Te3,mp-29711,True,False,0.638899999999999,-0.444227307333335,0.68,10.1016/j.rinp.2018.05.044,Chalcogenides,1
K2Ag3Sb3S7,mp-1223709,False,True,1.8381999999999992,-0.53850273788657,2.2,10.1021/ic9010339,Antimonides,2
K2Cd3Te4,mp-18531,False,False,1.438,-0.847990985407406,2.26,10.1021/ic010069n,Chalcogenides,1
Cs2Hg3I8,mp-540574,True,False,1.731399999999999,-0.948203027446948,2.56,10.1039/c3dt53463d,Halides,1
CaTi2O5,mp-1403610,False,True,2.9078,-3.543918041458333,3.095,10.1016/j.optmat.2020.109921,Oxides,1
Mg3P2,mp-2514,True,False,1.798099999999999,-0.647706519857142,1.935,10.1021/jacs.5b03986,Phosphides,1
Na2In2GeS6,mp-1190145,True,False,2.190699999999999,-1.013538085553812,2.7935,10.1021/acs.inorgchem.6b00535,Chalcogenides,1
LiCa3As2H,mp-1192528,True,False,1.441699999999999,-1.041394735654762,1.4,10.1039/c4dt02244k,Arsenides,2
Cs2CO3,mp-616458,True,False,3.3306,-2.066702077385059,1.8,10.1016/j.tsf.2016.10.050,Oxides,1
CI4,mp-27962,False,False,1.1181,0.228991176499999,2.26,10.1021/jacs.5b03986,Halides,1
CsK2Sb,mp-581024,True,False,0.8633999999999991,-0.5588751093750021,1.62,10.1038/s41598-019-54419-0,Antimonides,1
K2CuSbS3,mp-554343,False,False,1.2062,-0.955653615642856,2.2,10.1039/c5dt03910j,Antimonides,2
BaCrO4,mp-18571,True,False,2.9695,-2.461335070833333,2.63,10.1039/c5ra11682a,Oxides,1
Li2CdGeS4,mp-1189383,True,False,2.2131,-1.098681862083332,3.1,10.1039/c8dt04889d,Chalcogenides,1
Cs3Bi2Cl9,mp-1104268,True,False,3.229899999999999,-1.644747245178572,2.215,10.1039/c7ta00269f,Halides,1
Ba2SiO4,mp-17612,True,False,4.6319,-3.361976853214285,4.2605,10.1016/j.optmat.2018.07.021,Silicides,2
La2MoO5,mp-1105399,False,False,0.5206000000000001,-3.126056116250002,0.55,10.1021/ic501327u,Oxides,1
MnWO4,mp-19407,True,False,2.356299999999999,-2.216569472988496,2.69,10.1016/j.physb.2012.05.044,Oxides,1
RbMgBO3,mp-1020633,True,False,4.3738,-2.761020107777777,3.827,10.1039/c5tc02337h,Oxides,1
Ca6Te3N2,mp-1246515,True,True,1.843299999999999,-1.551299843409091,2.5,10.1021/acs.inorgchem.6b01476,Chalcogenides,2
ZnTe,mp-2176,True,False,1.073299999999999,-0.6841630333333321,2.26,10.1016/j.matpr.2015.11.047,Chalcogenides,1
YIO,mp-753712,True,True,3.4078,-3.048536466666665,3.16,10.1039/c3nr05984g,Halides,2
Cu8SiS6,mp-13872,False,False,0.8296999999999991,-0.322123399499999,0.97,10.1039/c8nj06270f,Silicides,2
NaMgSb,mp-7090,True,False,1.0359,-0.5565706387931041,1.04,10.1039/c6tc00461j,Antimonides,1
SiP2,mp-9996,True,False,1.4262,-0.142390731567459,2.25,10.1039/c7nr07994j,Silicides,2
LaPO4,mp-3962,True,False,4.486000000000001,-3.538097613829366,4.96,10.1016/j.optmat.2010.12.019,Oxides,1
KAg2SbS3,mp-1192667,False,False,1.688299999999999,-0.537441497375994,2.1,10.1021/ic9010339,Antimonides,2
Cu2WS4,mp-557373,False,False,1.5621,-0.535848055892856,1.74,10.1016/j.cej.2020.125913,Chalcogenides,1
Ag2S2O7,mp-1192057,True,False,2.301599999999999,-1.405367447121212,2.24,10.1039/c3nr06565k,Chalcogenides,2
Cs2PdI6,mp-29806,False,False,0.6286,-1.036935383256706,1.4,10.1039/c9dt01485c,Halides,1
RbZnF3,mp-4975,True,False,4.0784,-2.796601446999999,3.6825,10.1016/j.physb.2012.10.024,Halides,1
LaFeO3,mp-1078634,True,False,1.950899999999999,-2.852925804000007,2.1,10.1016/j.cej.2012.08.012,Oxides,1
SrWO4,mp-19163,True,False,4.6571,-2.7457271575,4.8,10.1016/j.matpr.2020.04.142,Oxides,1
ZnIn2O4,mp-756297,False,True,1.179099999999999,-1.906449286904761,1.23,10.1016/j.optmat.2014.08.010,Oxides,1
NaIn(WO4)2,mp-20678,True,False,3.4845,-2.180769027337163,3.69,10.1016/j.physb.2014.11.100,Oxides,1
ScPO4,mp-4200,True,False,4.193899999999999,-3.354315457440474,4.255000000000001,10.1016/j.cej.2016.11.136,Oxides,1
CsI,mp-614603,True,False,3.8556,-1.733770282327588,4.595000000000001,10.1016/j.optmat.2013.01.030,Halides,1
Er2Se3,mp-209,True,False,0.7923,-2.173853193270832,1.66,10.1021/jacs.5b03986,Chalcogenides,1
BiSbSe3,mp-1227508,False,True,1.0106,-0.344257173187503,1.1,10.1039/d0cp01231a,Antimonides,2
Li2MnO3,mp-18988,True,False,1.368399999999999,-2.180112729932952,1.89,10.1039/c5tc00616c,Oxides,1
Mg(AlH4)2,mp-23709,False,False,4.3638,-0.144007213181818,2.9,10.1007/s10948-019-05237-y,Hydrides,1
MnZnO3,mp-754318,False,True,1.7946,-1.813649822586207,2.18,10.1007/s41779-017-0100-4,Oxides,1
PtS2,mp-762,True,False,1.5467,-0.43941375520833,0.95,10.1016/j.rinp.2020.103088,Chalcogenides,1
Sm2Se3,mp-32594,False,True,1.5046,-2.173472364187501,2.3,10.1021/jacs.5b03986,Chalcogenides,1
K4GeSe4,mp-568847,True,False,1.9993,-1.213493228847221,0.64,10.1002/zaac.200700440,Chalcogenides,1
HCN,mp-510458,False,False,3.616,-0.092846543125001,0.68,10.1016/j.cej.2020.125347,Nitrides,1
FeBiO3,mp-23501,False,False,1.279099999999999,-1.672776781,2.2,10.1039/c5ra18808c,Oxides,1
NaFeF3,mp-1078217,True,False,2.2462,-2.739065476775862,0.88,10.1007/s10008-014-2454-7,Halides,1
KPb2Br5,mp-31508,False,False,3.0699,-1.47434131903125,3.46,10.1016/j.optmat.2016.01.025,Halides,1
MgSiAs2,mp-1016197,True,False,1.303199999999999,-0.297332561249999,1.985,10.1016/j.optmat.2016.01.061,Arsenides,2
CCl2,mp-1214217,False,True,3.9193,-0.3825148675,1.615,10.1039/b901512d,Halides,1
CaZrS3,mp-7781,False,False,1.1878,-2.031619070999999,1.9,10.1039/d0tc04516k,Chalcogenides,1
FeO,mp-1274279,True,True,1.8157,-1.481519387499999,2.0,10.1016/j.cej.2020.124230,Oxides,1
Zn3In2O6,mp-863430,False,True,0.656099999999999,-1.847204738939393,3.0,10.1016/j.tsf.2007.05.082,Oxides,1
Bi14MoO24,mp-691119,True,True,2.6318,-1.697635304615385,2.91,10.1039/c6ce01948j,Oxides,1
TiO2,mp-390,True,False,2.0586,-3.508055451944444,3.2,10.1016/j.cej.2006.05.011,Oxides,1
K2Ho4Cu4S9,mp-1172870,True,False,0.8687,-1.653298726684208,2.43,10.1021/ic034600l,Chalcogenides,1
KGdTiO4,mp-1211763,False,True,2.1484,-3.364131046154763,3.04,10.1039/c3tc32472a,Oxides,1
Sn2S3,mp-1509,True,False,0.7774000000000001,-0.473314881187499,1.175,10.1016/j.tsf.2004.11.012,Chalcogenides,1
RuS2,mp-2030,True,False,0.6683999999999991,-0.6867098235416661,1.55,10.1016/j.tsf.2004.11.128,Chalcogenides,1
Nd2TiO5,mp-17904,True,False,3.313799999999999,-3.7841771885416673,3.0,10.1007/s10854-016-5692-x,Oxides,1
ZrO2,mp-2858,True,False,3.5322,-3.813617754999999,5.0,10.1016/j.cej.2011.10.085,Oxides,1
SiB3,mp-569128,True,False,1.408,-0.0441499209375,1.1,10.1002/(SICI)1521-3749(199907)625:7<1207::AID-ZAAC1207>3.0.CO;2-9,Silicides,1
LaSi3N5,mp-1019967,True,False,3.099299999999999,-1.517069520416667,3.915,10.1016/j.jeurceramsoc.2013.12.054,Silicides,2
Sr2LiReO6,mp-1080625,True,False,1.8423999999999991,-2.749342723583333,2.21,10.1007/s00894-020-04421-5,Oxides,1
TlPb2Cl5,mp-27283,False,False,3.543399999999999,-1.513737124791668,3.42,10.1016/j.optmat.2013.09.004,Halides,1
Cs4PbI6,mp-1238804,True,True,3.4095,-1.532223946692787,3.44,10.1039/c6mh00519e,Halides,1
Na5Gd(MoO4)4,mp-556070,True,False,3.3922,-2.325360294303714,3.376,10.1021/ic900784t,Oxides,1
HCl,mp-634101,False,True,2.584699999999999,-0.486256185624999,2.565,10.1016/j.physb.2013.12.015,Halides,1
MgGeAs2,mp-1016200,False,False,0.5541,-0.356939423749999,1.95,10.1016/j.optmat.2016.01.061,Arsenides,1
Cs2AgSbBr6,mp-1112943,False,True,1.1916,-1.408664374097701,1.64,10.1016/j.cej.2020.124757,Antimonides,2
Y2GeO5,mp-768814,True,True,3.5881,-3.338367075000007,4.0,10.1039/c2cp42380d,Oxides,1
FeCl3,mp-676241,False,True,0.6636000000000001,-1.140329346249999,0.685,10.1016/j.jece.2020.104138,Halides,1
K2SnBr6,mp-574040,True,False,1.6124,-1.544271811611111,1.4049999999999998,10.1039/c9ra09232c,Halides,1
NaBiO3,mp-23054,True,False,1.096399999999999,-1.580260707275866,2.45,10.1039/c7ra01650f,Oxides,1
BaBiO3,mp-1182285,False,True,1.1031,-1.590228198,2.05,10.1039/b821991e,Oxides,1
MnAl2O4,mp-755882,True,False,2.6578,-3.047750007561575,2.21,10.1039/c7dt04765g,Oxides,1
Cu4Bi4S9,mp-559551,False,False,0.972299999999999,-0.340808194430143,0.915,10.1039/c3nj00928a,Chalcogenides,1
Rb4Ta2S11,mp-14577,False,False,1.7792,-1.257155684539214,2.58,10.7567/JJAPS.39S1.279,Chalcogenides,1
TcS2,mp-9481,True,False,1.1885,-0.7253695210416661,0.9,10.1039/c3dt51903a,Chalcogenides,1
Ge,mp-1198022,False,False,1.1428,0.043253197058822,0.7,10.1016/j.matpr.2017.11.129,Others,0
CsSnBr3,mp-1247749,True,True,0.9682,-1.573933961431037,1.75,10.1039/c7se00100b,Halides,1
FeSbS,mp-27904,True,False,0.547,-0.592936158333333,0.8,10.1039/c4ee01335b,Antimonides,2
CaSnO3,mp-4438,True,False,2.3301,-2.694555046500007,4.3,10.1016/j.physb.2010.05.004,Oxides,1
Rb3In(IO3)6,mp-1192770,True,False,2.9749,-1.239729310327381,2.45,10.1039/c0dt01272f,Halides,2
Li2W2O7,mp-27130,False,False,3.7425,-2.28143384151515,4.35,10.1007/s10973-017-6355-8,Oxides,1
CdS,mp-672,True,False,1.125,-0.7761274614062491,2.4,10.1016/j.cej.2009.05.037,Chalcogenides,1
LiZr2(PO4)3,mp-10499,True,False,4.253299999999999,-3.170948748458995,3.5,10.1039/c7ta08968f,Oxides,1
K6CdTe4,mp-17698,True,False,1.6614,-1.108454179560604,2.51,10.1021/ja9094846,Chalcogenides,1
CaCl2,mp-1120739,False,True,4.8803,-2.605115638333333,3.2,10.1039/c9sc01216h,Halides,1
CS2,mp-2232,False,False,3.4316,-0.063416890833333,2.29,10.1007/s10854-017-7676-x,Chalcogenides,1
Ba5Ta4O15,mp-504554,True,False,3.0865,-3.439217441430571,4.0,10.1016/j.physb.2018.04.032,Oxides,1
Ca2FeMoO6,mp-18783,False,False,1.1193,-2.548062932999999,2.42,10.1007/s10948-019-5064-x,Oxides,1
CSO,mp-28240,False,False,4.9077,-0.924298005,3.35,10.1016/j.jallcom.2017.05.112,Chalcogenides,2
NaTaO3,mp-3858,True,False,2.6172,-3.062992296242529,4.0,10.1039/c0jm03451g,Oxides,1
ZnS,mp-554820,True,False,2.0195,-0.9622174221205352,3.65,10.1016/j.cej.2007.09.046,Chalcogenides,1
HgCl2,mp-22855,True,False,2.8686,-0.683485675,4.45,10.1039/c4ja00327f,Halides,1
CuBr,mp-22917,False,False,0.9962,-0.515792749999999,1.9835,10.1039/c4cp05840b,Halides,1
Sr2TiO4,mp-5532,True,False,1.9141999999999992,-3.443433267619047,2.56,10.1016/j.jece.2020.103791,Oxides,1
CeO2,mp-20194,True,False,1.8647,-3.9271761966666654,3.13,10.1016/j.cej.2013.05.106,Oxides,1
LiZnBO3,mp-1222376,False,True,3.5248,-2.414061129583333,3.1,10.1016/j.solidstatesciences.2010.11.029,Oxides,1
YCuTe2,mp-1100868,False,True,0.6041999999999991,-1.091764340833332,0.6,10.1039/c8ta06470a,Chalcogenides,1
Ta2O5,mp-10390,True,False,1.2267,-3.346563131380951,4.0,10.1016/j.cej.2019.03.029,Oxides,1
Tl3PbI5,mp-23380,False,False,2.6616,-0.8586223069444461,2.4850000000000003,10.1039/c4cp00591k,Halides,1
Y3TaO7,mp-11321,True,False,3.5002,-3.826173611575757,4.6,10.1039/d0ra01912g,Oxides,1
HfS2,mp-985829,True,False,1.2237,-1.806353931875001,1.93,10.1016/j.optmat.2020.109784,Chalcogenides,1
CdWO4,mp-19387,True,False,3.262699999999999,-1.985844491666664,3.7,10.1016/j.physb.2017.02.009,Oxides,1
Y3GaS6,mp-1189598,True,False,2.0555,-2.019178933250001,2.88,10.7567/JJAPS.39S1.279,Chalcogenides,1
Ba2VFeO6,mp-1096782,False,True,1.0389,-2.592685414,1.0,10.1038/s41598-017-06396-5,Oxides,1
K2Gd2Sb2Se9,mp-1199482,True,False,0.922,-1.32107574920625,1.33,10.1002/zaac.200900427,Antimonides,2
CrF3,mp-560338,True,False,3.0453,-3.041799825625,1.53,10.1039/c7cp07953b,Halides,1
LiMgN,mp-37906,True,True,2.4462,-0.8117910368055551,3.45,10.1016/S0022-0248(01)02249-7,Nitrides,1
MgS,mp-1315,True,False,2.7574,-1.66150344875,0.658,10.1016/j.physb.2019.411669,Chalcogenides,1
LaVO4,mp-19162,True,False,2.8563,-3.224557474166666,2.69,10.1016/j.cej.2018.09.098,Oxides,1
SrTh(PS4)2,mp-1194714,True,False,2.254699999999999,-1.391357465148808,3.02,10.1002/ejic.201403244,Chalcogenides,1
CsTlCl3,mp-1112176,False,True,1.2584,-1.680223661597703,2.5,10.1007/s00706-017-1933-9,Halides,1
CdIn2O4,mp-19803,True,False,0.9137,-1.842010734047615,3.225,10.1016/j.tsf.2009.06.054,Oxides,1
KZnF3,mp-5878,True,False,3.6954,-2.81380577495,4.3805,10.1016/j.physb.2011.06.063,Halides,1
CsGeCl3,mp-22988,True,False,2.153499999999999,-1.712059218931035,1.835,10.1039/c8ra06374e,Halides,1
FeMoO4,mp-505526,False,False,2.037,-1.875182581666667,2.725,10.1007/s11164-013-1057-8,Oxides,1
RbBaPS4,mp-1192550,True,False,2.2671,-1.478465595306122,3.3,10.1039/c4ta04757e,Chalcogenides,1
NaNbO2,mp-3744,True,False,1.378099999999999,-2.522986689094827,1.5,10.1039/c5ee01745a,Oxides,1
Li6PS5Br,mp-985591,False,True,2.1394,-1.305762864010988,2.12,10.1039/c5cp01841b,Halides,2
KCu2SbS3,mp-1192531,False,False,0.9539,-0.6961365396071421,1.53,10.1016/j.jssc.2015.10.028,Antimonides,2
Na2O2,mp-2340,True,False,1.7361,-1.2980963948563211,4.84,10.1039/c4cp05042h,Oxides,1
IrS2,mp-2833,True,False,0.5371,-0.502104100624995,0.9,10.1021/jacs.5b03986,Chalcogenides,1
Sm2O3,mp-218,True,False,3.7823,-3.86195246725,3.7,10.1007/s10854-016-6224-4,Oxides,1
CsPbBr3,mp-567681,True,False,2.8808,-1.636219281431034,2.3,10.1016/j.cej.2018.03.009,Halides,1
LaGaS3,mp-4816,True,False,2.2366,-1.6841287401874991,2.5,10.1016/j.solidstatesciences.2007.12.010,Chalcogenides,1
CsCdBO3,mp-1191636,True,False,1.646199999999999,-2.20257312480364,2.58,10.1002/ejic.201300888,Oxides,1
FeBO3,mp-19097,True,False,1.481599999999999,-2.270362331833334,2.35,10.1007/s10008-020-04836-3,Oxides,1
CsGaS3,mp-562726,True,False,2.647199999999999,-0.9883059401875012,2.78,10.1021/acs.inorgchem.7b01548,Chalcogenides,1
Ba3InS4Cl,mp-1205371,False,False,2.8257,-2.048999094074073,3.205,10.1016/j.jallcom.2014.07.135,Halides,2
SrGe4O9,mp-9380,False,False,3.0685,-2.338752899642857,3.28,10.1007/s00339-020-3329-7,Oxides,1
KMgH3,mp-23737,True,False,2.458,-0.3456561272,2.59,10.1016/j.jssc.2005.12.033,Hydrides,1
Ca4Si2O7F2,mp-560163,True,False,4.8233,-3.630295984333333,4.8,10.1016/j.optmat.2011.06.012,Silicides,3
CdTeO3,mp-28290,True,False,3.019,-1.521631727583333,3.3,10.1039/c1jm11734c,Chalcogenides,2
CsAg2AsS3,mp-866615,True,False,1.65,-0.6518740582840711,2.7,10.1016/j.jssc.2009.11.012,Arsenides,2
TaO2,mp-683983,False,True,0.77,-2.751955468486111,1.0,10.1039/c8cs00283e,Oxides,1
SrS,mp-1087,True,False,2.497,-2.42450937390625,4.779999999999999,10.1021/jacs.5b03986,Chalcogenides,1
Sn3WO6,mp-556980,False,False,2.161499999999999,-1.85806374525,2.49,10.1002/zaac.20050037,Oxides,1
LaCrO3,mp-19281,True,False,2.3706,-3.1966233445,1.33,10.1039/c7dt01267e,Oxides,1
Rb2Cu2SnS4,mp-18006,False,False,0.9012999999999992,-0.8821618116666651,2.08,10.1039/c4ce00740a,Chalcogenides,1
Li3Bi2(PO4)3,mp-684504,False,True,4.0294,-2.512523591821428,3.5,10.1039/c7ta08968f,Oxides,1
NaAlH4,mp-23704,True,False,4.6666,-0.212679999166666,4.8,10.1016/j.physb.2008.11.171,Hydrides,1
Ca3N2,mp-844,True,False,1.3497,-0.9597206842499992,1.55,10.1021/ja210846d,Nitrides,1
Cs2HgCl4,mp-1203522,True,False,3.0746,-1.768159905615765,3.59,10.1016/j.optmat.2016.07.019,Halides,1
CuCN,mp-35308,False,True,2.5202,0.239310635833332,3.26,10.1039/c7ta09233d,Nitrides,1
NdGaO3,mp-3196,False,False,3.452499999999999,-3.053719460000001,2.653,10.1007/s10948-018-4938-7,Oxides,1
Li2WO4,mp-19260,True,False,3.968,-2.352370269523809,4.175,10.1007/s10973-017-6355-8,Oxides,1
LiTaO3,mp-3666,True,False,3.7003,-3.125358770133336,4.4,10.1016/j.cej.2019.06.015,Oxides,1
SnSe2,mp-665,True,False,0.7018,-0.423896769375,1.2,10.1016/j.matpr.2016.11.085,Chalcogenides,1
La4Cd4In2S13,mp-1196490,False,False,1.156899999999999,-1.524556674275361,2.27,10.1016/j.jssc.2015.06.033,Chalcogenides,1
Be3N2,mp-18337,True,False,3.3145,-1.217352798500001,3.8,10.1021/ja210846d,Nitrides,1