formula,mpids,is_stable,theoretical,band_gap,formation_energy_per_atom,Value,DOI,compound_type,Category_count
Dy4GaSbS9,mp-1196712,False,False,2.0092,-1.835451649777775,2.58,10.1134/S0020168511010109,Antimonides,2
CsSnCl3,mp-27394,True,False,2.9154,-1.579432963000002,1.4125,10.1039/c9ra10407k,Halides,1
XeF4,mp-23185,True,False,2.8624,-0.8595150519999991,2.6,10.1039/b702109g,Halides,1
BaHgS2,mp-28007,True,False,1.1569,-1.404333458124999,1.93,10.1021/acs.inorgchem.5b00071,Chalcogenides,1
Li2O2,mp-841,True,False,1.974299999999999,-1.650170236666666,4.5,10.1039/c3ee42446d,Oxides,1
AgI,mp-580941,True,False,1.3759,-0.467759898333332,2.775,10.1016/j.cej.2015.05.024,Halides,1
CdTeMoO6,mp-555560,True,False,3.189399999999999,-1.727071637962963,3.25,10.1039/c3tc30151f,Chalcogenides,2
Cs3BiBr6,mp-1112980,False,True,3.4221,-1.697060620896552,3.05,10.1039/d0tc02783a,Halides,1
NaLaMgWO6,mp-1173567,True,True,3.5197000000000003,-2.892416510137931,3.6685,10.1039/c9dt00315k,Oxides,1
Li2Fe(SO4)2,mp-1193501,False,False,4.2848,-2.10040549551282,5.0,10.1039/c6cp02175a,Chalcogenides,2
Nd2Zr2O7,mp-5977,True,False,3.3281,-3.842356440454542,3.75,10.1007/s10562-009-0178-6,Oxides,1
RbMnF3,mp-558749,True,False,2.943699999999999,-3.014906922586206,1.49,10.1007/s10948-019-05158-w,Halides,1
CdSiP2,mp-4666,True,False,1.4257,-0.272582178988093,1.358,10.1007/s13538-016-0455-y,Silicides,2
K2Sn2O3,mp-8624,True,False,1.3022,-1.742462365642854,2.75,10.1038/srep20446,Oxides,1
LiMn2O4,mp-1176656,False,True,1.052299999999999,-2.022560622027914,1.43,10.1016/j.tsf.2005.11.083,Oxides,1
Dy2O3,mp-2345,True,False,3.925499999999999,-4.005045779666665,4.8,10.1016/j.cej.2011.02.051,Oxides,1
In7Te10,mp-669311,True,False,0.8223,-0.458874379411765,1.75,10.1016/S0040-6090(03)00240-2,Chalcogenides,1
SnS,mp-2231,True,False,0.904799999999999,-0.47160018765625,1.3,10.1016/j.optmat.2018.12.016,Chalcogenides,1
Nb3Sb2Te5,mp-569571,True,False,0.844599999999999,-0.644887052833331,0.9,10.1016/j.jssc.2007.10.028,Antimonides,2
GeSe2,mp-540625,True,False,1.7063,-0.5793224153125001,2.03,10.1016/j.optmat.2019.01.043,Chalcogenides,1
LaCoO3,mp-1288145,True,False,0.9497,-2.599926138,2.1,10.1016/j.physb.2012.11.002,Oxides,1
SmBiW2O9,mp-1200917,False,False,2.6689,-2.474325542115385,3.39,10.1039/c1dt10748h,Oxides,1
YN,mp-6913,False,True,0.700499999999999,-1.912152606874999,1.9,10.1021/jacs.5b03986,Nitrides,1
FeP4,mp-570553,True,False,0.8049000000000001,-0.370041921214284,0.88,10.1103/PhysRevB.60.2333,Phosphides,1
NaAsS2,mp-5942,True,False,1.3457,-0.7070754651562491,2.28,10.1021/ic8005629,Arsenides,2
Na4SnS4,mp-29628,True,False,2.078,-1.141544546805556,3.32,10.1007/s10854-020-04424-1,Chalcogenides,1
Ba2NdGaS5,mp-1228486,False,True,1.8105,-1.964321324722222,2.12,10.1021/ic301649p,Chalcogenides,1
Rh2O3,mp-1716,False,False,0.5597000000000001,-1.0714212435,1.2,10.1039/c8cy00583d,Oxides,1
CaV2O6,mp-27624,True,False,2.8812,-2.699767045555556,2.56,10.1039/c5ra10465c,Oxides,1
Dy2S3,mp-1270,True,False,0.593799999999999,-2.379156030187499,2.955,10.1021/jacs.5b03986,Chalcogenides,1
LaZnAsO,mp-549589,True,False,0.5760000000000001,-2.060511224375001,1.5,10.1016/j.tsf.2013.10.135,Arsenides,2
La2GeO5,mp-638261,True,False,4.021000000000001,-3.330141265312501,4.873,10.1016/j.optmat.2018.09.024,Oxides,1
InBi2Se4Br,mp-571169,False,False,1.2945,-0.775952893880208,1.21,10.1016/j.jallcom.2006.10.056,Halides,2
K3Sb,mp-10159,False,False,0.6773,-0.5330957603125,1.4,10.1021/jacs.5b03986,Antimonides,1
K3Ti2P5S18,mp-1211873,True,True,1.1872999999999991,-1.017506236129675,1.61,10.1021/cm050102u,Chalcogenides,2
LaTaN2O,mp-550514,True,False,0.671299999999999,-2.215536883466666,1.9,10.1021/ic4013763,Oxides,2
La2ZrS5,mp-1198687,True,False,1.0739,-2.291879551562502,2.01,10.1039/c3dt50291k,Chalcogenides,1
Li3Sc2(PO4)3,mp-6565,True,False,4.7568,-3.121208874571429,4.681,10.1039/c8cp05942j,Oxides,1
BaWO4,mp-19048,True,False,4.8822,-2.729128477500001,3.2,10.1016/j.optmat.2019.04.026,Oxides,1
Li3PS4,mp-985583,True,True,2.8091,-1.181291934642856,3.68,10.7567/JJAPS.39S1.279,Chalcogenides,1
LaYS3,mp-1200447,True,False,0.7897999999999991,-2.4628581604375,1.9,10.1039/c7ee02702h,Chalcogenides,1
FePO4,mp-753395,True,True,1.3564,-2.351585960357142,2.445,10.1016/j.colsurfa.2020.124561,Oxides,1
BaZnO2,mp-4236,True,False,2.2724,-2.365424036666665,2.2,10.1007/s10765-016-2115-4,Oxides,1
Mn3O4,mp-18759,True,False,0.8134999999999991,-2.050409240541872,2.3,10.1016/j.cej.2020.124997,Oxides,1
CsLu7S11,mp-1202825,True,False,2.031799999999999,-2.327677670332728,1.86,10.1143/JJAP.50.031102,Chalcogenides,1
LaBO3,mp-8216,True,False,4.500700000000001,-3.521145549833336,1.67,10.1016/j.optmat.2019.109487,Oxides,1
TiS2,mp-1216778,False,True,0.7773000000000001,-1.438716037777776,1.12,10.1039/c2cp42949g,Chalcogenides,1
Rb3Bi2I9,mp-29895,True,False,2.4754,-1.177800070535715,2.1,10.1039/c9cc06625j,Halides,1
GeI2,mp-27922,True,False,2.0217,-0.594992870555555,1.5,10.1021/jacs.5b03986,Halides,1
Cs2Pt,mp-13548,True,False,1.6743,-0.069848213333334,1.5,10.1039/c7cp05027e,Others,0
NiWO4,mp-21179,True,False,2.8991,-1.900100025833332,2.9,10.1016/j.matpr.2018.06.610,Oxides,1
NaP,mp-7440,True,False,0.8684000000000001,-0.499863119613094,2.0340000000000003,10.1007/s00894-011-1331-x,Phosphides,1
K2Ag2SnSe4,mp-570887,True,False,0.8472000000000001,-0.8404800391342581,1.8,10.1107/S0108270100010106,Chalcogenides,1
Na2Ta4O11,mp-3285,True,False,3.4629,-3.184666606887761,3.3,10.1039/c5ra24925b,Oxides,1
Tl4HgBr6,mp-27293,False,False,1.831999999999999,-1.049838820984852,1.8,10.1039/c3tc32481h,Halides,1
Sr2Nb2O7,mp-3870,True,False,2.6843999999999992,-3.300364764999999,2.15,10.1039/c2cp23912d,Oxides,1
SrZn2(PO4)2,mp-8810,True,False,4.1385,-2.727579975137362,4.03,10.1007/s10854-020-03552-y,Oxides,1
Ba2ZnTe3,mp-1190380,False,False,1.2922,-1.536545329166665,2.0,10.1016/j.jes.2014.06.051,Chalcogenides,1
Mg2TiO4,mp-757031,True,True,3.4044,-3.2730648479761912,3.55,10.1039/c6ra16284c,Oxides,1
Ga2Se3,mp-1340,True,False,1.043599999999999,-0.700867464437499,2.29,10.1007/s10971-009-1973-7,Chalcogenides,1
PrCrO3,mp-1105822,True,False,2.0419,-3.121656220833332,3.2,10.1016/j.optmat.2020.109742,Oxides,1
Pr2Sn2O7,mp-4394,True,False,2.6358,-2.955287218030299,4.19,10.1039/c5ra26028k,Oxides,1
Cu2S,mp-1225993,False,True,1.2158,-0.149836503020832,1.21,10.1016/j.cej.2013.06.097,Chalcogenides,1
SrFe12O19,mp-3742,False,False,1.140199999999999,-1.731081362812499,1.86,10.1016/j.cej.2013.09.043,Oxides,1
Ba2GaSbSe5,mp-1203387,True,False,1.806699999999999,-1.477086528802083,2.51,10.1016/j.jssc.2012.08.039,Antimonides,2
Li8SiO6,mp-28549,True,False,4.4509,-2.435039187444444,4.745,10.1039/c3cp51659h,Silicides,2
Li2CaGeO4,mp-7611,True,False,4.1135,-2.604269733958333,2.4,10.1016/j.optmat.2014.04.024,Oxides,1
Hf3N4,mp-776470,True,True,1.2648,-1.973946385357144,0.815,10.1039/c7ce00524e,Nitrides,1
LiAlH4,mp-27653,False,False,4.7457,-0.217149126527777,4.67,10.1039/c4ra13974g,Hydrides,1
CsCaH3,mp-644203,False,False,3.1408,-0.497071646999999,3.17,10.1016/j.jssc.2005.12.033,Hydrides,1
SeO2,mp-726,True,False,3.2874,-1.154143574114583,4.77,10.1016/j.optmat.2019.109338,Chalcogenides,2
Ba2SnSe4,mp-1192595,True,False,1.264599999999999,-1.633364205625,1.735,10.1016/j.solidstatesciences.2015.09.013,Chalcogenides,1
K2Ti4O9,mp-1194282,False,False,3.0211,-3.258138655522222,3.4,10.1016/j.cej.2012.07.075,Oxides,1
InSb2S4Cl,mp-556541,True,False,1.552499999999998,-0.7857323302083311,1.8,10.1016/j.jallcom.2006.10.056,Antimonides,3
Sb2O3,mp-2136,True,False,2.2239,-1.751737501999998,3.31,10.1039/c4ra04657a,Antimonides,2
Mg3Sb2,mp-1196139,True,True,1.3212000000000002,-0.428131339249999,0.6499999999999999,10.1039/c5cp07482g,Antimonides,1
Li2SnS3,mp-1190364,False,False,1.419099999999999,-1.131851621527777,2.14,10.1039/c9cp05939c,Chalcogenides,1
Cd4Sb2I3,mp-29044,True,False,1.130599999999999,-0.492905227499999,1.81,10.1021/acs.inorgchem.7b00002,Antimonides,2
Pb3O4,mp-22633,True,False,1.133,-1.44698115428571,2.1100000000000003,10.1039/c2ra21660d,Oxides,1
SrBi2B2O7,mp-558323,False,True,2.8040000000000003,-2.496932166805556,2.57,10.1039/c6ra26752a,Oxides,1
CsSmHgSe3,mp-7212,True,False,1.3625,-1.465415702364405,2.374,10.1103/PhysRevB.65.045205,Chalcogenides,1
SrCrO4,mp-510607,True,False,2.857599999999999,-2.448814325416667,2.4450000000000003,10.1007/s00214-015-1675-x,Oxides,1
LiMgSb,mp-1207082,True,True,1.4438,-0.616211496111109,1.875,10.1016/j.physb.2017.05.041,Antimonides,1
CeVO4,mp-1182128,False,True,0.734,-3.053251684583332,1.8,10.1016/j.cej.2010.01.056,Oxides,1
Li2O,mp-1960,True,False,4.8986,-2.061597913888889,3.24,10.1016/j.physb.2014.07.073,Oxides,1
Ge3N4,mp-672289,True,False,2.064,-0.192592425714287,2.595,10.1039/c6ce01875k,Nitrides,1
Ba3GaAs3,mp-1195592,True,False,0.6858000000000001,-1.00034337125,0.78,10.1016/j.jallcom.2015.10.283,Arsenides,1
Gd4GaSbS9,mp-1199284,False,False,1.518,-1.844329226999997,2.41,10.1134/S0020168511010109,Antimonides,2
Cd4P2Cl3,mp-29746,True,False,1.3826,-0.734202555383597,2.21,10.1002/anie.201900936,Halides,2
Si,mp-149,True,False,0.6105,0.0,1.12,10.1016/j.cej.2020.125641,Silicides,1
Cs3Sb2Cl9,mp-27629,True,False,2.395299999999999,-1.816249709926107,2.07,10.1039/d0nr06138g,Antimonides,2
Cs2TeBr6,mp-23405,True,False,2.1121,-1.456546289553001,2.12,10.1002/1099-0682(200109),Halides,2
K4GeS4,mp-556627,True,False,2.7142,-1.273485641277778,0.8,10.1002/zaac.200700440,Chalcogenides,1
LaCuSeO,mp-552488,True,False,1.5380999999999991,-2.314142779335937,2.148,10.1039/c8qi01402g,Chalcogenides,2
SrGeO3,mp-17464,True,False,3.4179,-2.743115335333333,3.185,10.1039/c6cp05572a,Oxides,1
InSe,mp-22691,False,False,0.6375000000000001,-0.6763020120312461,1.39,10.1016/j.optmat.2006.09.009,Chalcogenides,1
NaInS2,mp-20289,True,False,1.8377,-1.089904453906248,2.585,10.1039/d0cp02241a,Chalcogenides,1
BaAl4Se7,mp-1191234,False,False,2.3933,-1.370573937617186,3.4,10.1039/c2ic90019j,Chalcogenides,1
Rb2Th7Se15,mp-1201494,True,False,1.3442999999999992,-1.99923215000651,1.83,10.1016/j.jssc.2013.06.031,Chalcogenides,1
Cs3Bi2Br9,mp-27544,True,False,2.599599999999999,-1.605951188854681,2.67,10.1039/c8cc01110a,Halides,1
K2TeI6,mp-27688,True,False,1.7449,-1.006003727907404,1.38,10.1021/ja200257a,Halides,2
KAu(IO3)4,mp-557441,True,False,2.1181,-0.916315649291666,2.52,10.1111/jace.13961,Halides,2
KIn(TeO3)2,mp-1195253,True,False,2.8719,-1.765976419724999,4.0,10.1016/j.jallcom.2014.11.039,Chalcogenides,2
AsI3,mp-23218,True,False,2.2375,-0.478643139374998,2.415,10.1021/jacs.5b03986,Arsenides,2
Nd2MnNiO6,mp-18899,True,False,1.457199999999999,-2.780404253293103,1.02,10.1016/j.jssc.2004.03.031,Oxides,1
Ho2O3,mp-812,True,False,3.9457999999999993,-4.027559444749998,2.84,10.1021/jacs.5b03986,Oxides,1
HCO,mp-995234,False,True,4.3277,-0.8765096791071431,3.26,10.1039/c5ra24323h,Oxides,1
Cs2Hg6S7,mp-17905,True,False,0.6230999999999991,-0.627765574120692,1.63,10.1007/s13391-018-0033-2,Chalcogenides,1
Mn2V2O7,mp-19142,True,False,1.204,-2.32008509916928,1.8,10.1039/d0nr02325f,Oxides,1
NaSbSe2,mp-1220879,True,True,0.6374999999999991,-0.727243492031249,1.48,10.1039/c7ra06938c,Antimonides,2
Li3GaN2,mp-3887,True,False,2.738699999999999,-0.70524114625,4.275,10.1016/j.physb.2010.02.033,Nitrides,1
TlGaTe2,mp-3785,True,False,0.5555999999999991,-0.578234344791667,0.95,10.1039/c8tc03492c,Chalcogenides,1
MnV2O6,mp-2490654,True,True,1.8528,-2.333588346992338,1.93,10.1039/c7dt00780a,Oxides,1
CaH2,mp-23713,True,False,3.0275,-0.6668815449999991,3.0,10.1016/j.jssc.2017.05.029,Hydrides,1
HgS,mp-9252,False,False,1.6863,-0.371178477500002,0.7,10.1016/j.physb.2019.04.029,Chalcogenides,1
SnSe,mp-691,True,False,0.5159,-0.45354630828125,0.94,10.1016/j.matpr.2019.02.190,Chalcogenides,1
Ag2MoO4,mp-19318,False,False,1.873099999999999,-1.251052689761907,3.26,10.1016/j.physb.2019.02.036,Oxides,1
Pd(IO3)2,mp-1198404,False,False,0.9186,-0.7437370475,1.31,10.1021/ic101627v,Halides,2
CsTaWO6,mp-1225854,True,True,3.1466,-2.764782768554279,3.525,10.1039/c0jm02549f,Oxides,1
NaInO2,mp-5175,True,False,1.9142,-1.978897959511493,3.9,10.1039/c4ta00906a,Oxides,1
Li3Sb,mp-2074,False,False,0.707399999999999,-0.744135469999999,1.0,10.1039/c7cp05027e,Antimonides,1
Ba3Nb2Se9,mp-1195033,False,False,1.0023,-1.555105885256696,1.3,10.1021/cm401737s,Chalcogenides,1
Cs3AuO,mp-505212,True,False,1.3261,-0.8716979867931051,2.35,10.1039/b708844m,Oxides,1
Li3NbO4,mp-31488,True,False,3.8385,-2.717096784687499,4.0,10.1016/j.tsf.2016.01.030,Oxides,1
CaS,mp-1672,True,False,2.3819,-2.435607998906249,4.465,10.1016/j.optmat.2009.10.010,Chalcogenides,1
PbO,mp-19921,True,False,1.4635999999999991,-1.469972337031249,2.75,10.1016/j.matpr.2020.04.158,Oxides,1
Ag2WO4,mp-504466,False,True,2.0439,-1.348469886904761,2.925,10.1016/j.cej.2019.05.060,Oxides,1
K2SmP2S7,mp-555587,True,False,2.2591,-1.303826042190475,2.59,10.1021/ic101843,Chalcogenides,2
CuCl,mp-1225654,False,True,0.5569000000000001,-0.498003276249999,3.306,10.1016/j.physb.2006.01.447,Halides,1
Cu3BiS3,mp-607291,False,False,0.7058,-0.275353346026784,1.42,10.1016/j.cej.2019.122172,Chalcogenides,1
NaBiS2,mp-1221125,True,True,1.446899999999999,-0.8710035101562491,1.21,10.1039/c9cp00336c,Chalcogenides,1
TlBr,mp-568949,True,False,2.1678,-1.151021851666669,2.68,10.1016/j.physb.2011.02.014,Halides,1
K2Sn3O7,mp-1024073,True,True,1.5671,-2.08584630975,3.325,10.1021/acs.inorgchem.7b00036,Oxides,1
GaSe,mp-568263,True,False,1.2121,-0.69001870828125,2.0,10.1016/j.optmat.2016.02.034,Chalcogenides,1
CoPO4,mp-849770,True,True,1.0727,-2.09047651577381,1.1,10.1039/c6ta10674a,Oxides,1
Cs2TiCl6,mp-27828,True,False,2.2291,-2.063635286851851,2.54,10.1039/c9tc05711k,Halides,1
B6O,mp-1346,True,False,1.856399999999999,-0.8052726050000011,2.0,10.1039/c9cs00313d,Oxides,1
HCNO,mp-1190216,True,True,4.6665,-0.928053018854167,3.68,10.1039/c7nj03707d,Oxides,1
Na2O,mp-2352,True,False,1.8736,-1.425738685919539,1.53,10.1007/s10853-018-2179-6,Oxides,1
Li2FeSiO4,mp-18968,True,False,3.123599999999999,-2.563266433645833,3.15,10.1039/c3ta13387g,Silicides,2
TlHg6Se4Br5,mp-1202157,False,False,1.988999999999999,-0.695838585794273,2.8,10.1021/ic402023z,Halides,2
Mg3As2,mp-1990,True,False,1.6654,-0.78755513925,1.865,10.1038/s41524-019-0215-y,Arsenides,1
Y6MoO12,mp-1237135,False,True,2.1663,-3.360715905263158,3.05,10.1016/j.optmat.2016.09.026,Oxides,1
K3LuSi2O7,mp-557543,True,False,3.6132,-3.092836822570512,5.0,10.1038/s41467-019-13293-0,Silicides,2
CrCl3,mp-567504,True,False,1.5182,-1.425545254374999,1.09,10.1039/c5cp04835d,Halides,1
Rb2Mg2(WO4)3,mp-1195026,False,False,4.355700000000001,-2.417316159210526,4.17,10.1002/ejic.201500009,Oxides,1
Ga2Se2O7,mp-1196063,True,False,3.4975,-1.691454147926137,4.61,10.1021/ic300373z,Chalcogenides,2
AgN3,mp-2247,False,False,1.5714,0.624941838333334,3.67,10.1021/jacs.5b03986,Nitrides,1
Bi2Te2S,mp-1227335,False,True,0.7519,-0.2794673095625,0.92,10.1039/c8cp05793a,Chalcogenides,1
AsBr3,mp-23317,True,False,3.1271,-0.860313386875,2.6,10.1021/jacs.5b03986,Arsenides,2
Cs2MgSn3Se8,mp-1195633,True,False,1.4299,-1.014674557361454,1.92,10.1021/ic400995z,Chalcogenides,1
Cd3(PO4)2,mp-680761,True,False,2.5482,-2.2433336802655672,4.95,10.1016/j.matpr.2019.04.109,Oxides,1
K4Nb6O17,mp-560692,True,False,2.6581,-2.9229413715370383,3.2,10.1016/j.cej.2013.03.091,Oxides,1
La2TeO2,mp-4547,True,False,2.028699999999999,-3.386965779333334,2.5,10.1039/c8tc05917a,Chalcogenides,2
BiSbO4,mp-23018,True,False,2.4246,-1.841449013333336,2.85,10.1039/c1ce05025g,Antimonides,2
ThO2,mp-643,True,False,4.4187,-4.36779017333333,3.94,10.1039/c3dt32536a,Oxides,1
Rb3Al2(PO4)3,mp-560459,True,False,4.4183,-2.932643588821427,4.855,10.1039/c8qi01249k,Oxides,1
ZnMoO4,mp-1095420,True,False,2.300799999999999,-1.920267846666667,3.62,10.1016/j.optmat.2019.109205,Oxides,1
KTlO,mp-27716,True,False,1.1638,-1.191447635194449,1.46,10.1039/c8nr08046a,Oxides,1
CrI3,mp-1213805,True,True,1.159,-0.723041855833334,1.05,10.1039/c9ra01825e,Halides,1
K2Cd3S4,mp-18101,True,False,1.9018,-1.008943850694444,2.75,10.1021/ic010069n,Chalcogenides,1
SrSeO4,mp-4092,True,False,3.5358,-2.150680372890625,4.75,10.1002/zaac.201500211,Chalcogenides,2
Cs2SnCl6,mp-608555,True,False,2.59,-1.7102631183333332,2.14,10.1039/c9nj03902c,Halides,1
Li6PS5Cl,mp-985592,False,True,2.2955,-1.320229665164834,3.1,10.1039/c9ta02166c,Halides,2
KMgBO3,mp-1191101,True,False,4.6163,-2.778594942319444,3.742,10.1039/c5tc02337h,Oxides,1
Cs2TlBiI6,mp-1112501,False,True,1.3773,-1.172752488264369,1.37,10.1039/d0ee01153c,Halides,1
CaNb2O6,mp-17101,True,False,3.6052,-3.237535069722227,3.94,10.1016/j.cej.2020.125251,Oxides,1
B2S3,mp-1199451,True,False,2.5061,-0.7342185787266671,3.75,10.1039/c5tc01079a,Chalcogenides,1
MnTe6O13,mp-1201691,False,False,2.3901,-1.564019507896553,3.2,10.1039/b300573a,Chalcogenides,2
GeAs,mp-9548,True,False,0.5112999999999991,-0.060294584583334,1.615,10.1039/c8ta02676a,Arsenides,1
LiAsSe2,mp-1078724,True,False,0.7504000000000001,-0.6450723543229161,1.105,10.1002/ejic.200901052,Arsenides,2
LiZnAs,mp-9124,True,False,0.5518000000000001,-0.518190976944444,1.61,10.1016/j.physb.2017.05.041,Arsenides,1
SnO,mp-545820,False,True,0.519099999999999,-1.628875743749999,2.55,10.1016/j.cej.2019.02.062,Oxides,1
BaSO4,mp-3307,False,False,4.5086,-2.574819327083332,3.2725,10.1039/d0ta02348e,Chalcogenides,2
FeSi2,mp-1714,True,False,0.6966000000000001,-0.395635093333333,0.88,10.1016/j.matpr.2019.02.050,Silicides,1
LiZnN,mp-7575,True,False,0.5187,-0.423469533472221,1.945,10.1016/j.jallcom.2013.04.200,Nitrides,1
C2N,mp-2718,False,False,3.118999999999999,0.374331726249999,1.82,10.1039/c5ra26873g,Nitrides,2
Sm4GaSbS9,mp-1199065,True,False,1.9465999999999992,-1.839325372166666,2.23,10.1134/S0020168511010109,Antimonides,2
NaIn(IO3)4,mp-1196607,True,False,3.0219,-1.137425989891443,3.7,10.1039/c0dt01272f,Halides,2
K2Cd2Te3,mp-571637,True,False,1.882299999999999,-0.904475860523808,1.93,10.1021/ja9094846,Chalcogenides,1
Rb2Te,mp-441,True,False,1.8766,-1.137773643888888,4.5,10.1021/jacs.5b03986,Chalcogenides,1
CdO2,mp-2310,False,False,1.2535,-0.8412000416666661,3.6,10.1016/j.tsf.2011.06.030,Oxides,1
KSb5S8,mp-15559,True,False,1.591599999999999,-0.460078619017855,1.745,10.1016/j.jallcom.2003.11.108,Antimonides,2
K10Zn4Sn4S17,mp-1224229,True,True,2.1377,-1.183576601571427,3.1500000000000004,10.1021/cm030175i,Chalcogenides,1
TiNb2O7,mp-759307,False,True,2.1357,-3.169513764833335,2.91,10.1039/c6ta11061d,Oxides,1
TlHg6S4Br5,mp-1204377,False,False,2.1407,-0.6696991627083361,3.03,10.1021/ic402023z,Halides,2
CoO,mp-22408,True,False,0.5880000000000001,-1.2718311462500012,2.45,10.1016/j.cej.2019.122092,Oxides,1
LiCoPO4,mp-758022,True,True,3.2415,-2.404089948282313,3.4,10.1039/c1ee02283k,Oxides,1
SrNb2O6,mp-4591,True,False,2.9977,-3.237719354444443,3.94,10.1016/j.optmat.2017.02.002,Oxides,1
V2O3,mp-780654,False,True,0.620899999999999,-2.503826392749999,0.7,10.1016/j.tsf.2020.138063,Oxides,1
BaGa2GeSe6,mp-1227970,False,True,1.9186,-1.11165269040625,2.81,10.1039/c5tc02337h,Chalcogenides,1
Li8ZrO6,mp-755225,False,True,4.7984,-2.46284939711111,4.74,10.1039/c3cp51101d,Oxides,1
Cs2Cu2Sb2S5,mp-1190579,False,False,1.104299999999999,-0.6778431233296861,1.6,10.1016/j.jssc.2015.10.028,Antimonides,2
InS,mp-19795,True,False,1.3508,-0.6828759189062491,1.995,10.1016/j.optmat.2013.10.046,Chalcogenides,1
RbY(TeO3)2,mp-1194706,True,False,3.1745,-2.302052576083333,3.6,10.1021/nn305707f,Chalcogenides,2
LiInTe2,mp-20782,True,False,1.3847,-0.8370955545833321,1.23,10.1039/c9ta10466f,Chalcogenides,1
Zn2SiO4,mp-3789,True,False,2.7537000000000003,-2.44712343857143,4.955,10.1016/j.physb.2011.07.054,Silicides,2
Al4SiC4,mp-1214816,False,True,1.200899999999999,-0.069040207222222,1.05,10.1039/c6ra05749g,Silicides,2
Li2In2SiS6,mp-1191903,False,False,2.427999999999999,-1.131021578181817,3.61,10.1021/ic300604a,Silicides,2
LiCaAs,mp-1095289,True,False,1.073299999999999,-1.236092714722222,1.57,10.1006/jssc.1998.7791,Arsenides,1
ZnSnP2,mp-4175,True,False,0.704299999999999,-0.258769282738095,1.3199999999999998,10.1039/c5tc02663f,Phosphides,1
RbGaSnSe4,mp-1209628,True,True,1.378099999999999,-0.9905953270535712,1.88,10.1002/zaac.200400154,Chalcogenides,1