formula,mpids,is_stable,theoretical,band_gap,formation_energy_per_atom,Value,DOI,compound_type,Category_count
KCu4AsS4,mp-557728,False,False,1.2885,-0.5704321959749991,1.9,10.1021/ic302027b,Arsenides,2
K4Mg(WO4)3,mp-1194610,False,False,4.6083,-2.344874842449999,4.405,10.1039/c5dt00332f,Oxides,1
CsCdInTe3,mp-1195350,True,False,1.2066,-0.849440639803639,1.81,10.1039/c4ra13426e,Chalcogenides,1
K4Nb2S11,mp-15148,False,False,1.4656,-1.216252606852939,1.96,10.1002/1521-3749(200010)626:10<2153::AID-ZAAC2153>3.0.CO;2-X,Chalcogenides,1
Sr5Nb4O15,mp-761057,True,True,2.8004,-3.298532114583332,4.0,10.1039/b818922f,Oxides,1
FeWO4,mp-19421,True,False,2.401,-2.022696756666667,2.495,10.1016/j.jece.2020.104044,Oxides,1
InSb2S4Br,mp-559864,True,False,1.5308000000000002,-0.734209616458331,1.8,10.1016/j.jallcom.2006.10.056,Antimonides,3
K2Bi8Se13,mp-28800,True,False,0.8361000000000001,-0.791708378476904,0.53,10.1002/adma.200304994,Chalcogenides,1
Li4Ti5O12,mp-685194,False,True,2.7202,-3.203121053333332,2.0,10.1039/c2ee22734g,Oxides,1
Tl2O,mp-27484,True,False,0.5717000000000001,-0.8140924155555621,1.0,10.1039/c8tc06601a,Oxides,1
Ba2LaV3O11,mp-1214937,False,True,3.5103,-3.015995105882353,3.35,10.1039/c5cp04115e,Oxides,1
K2Te,mp-1747,True,False,2.141,-1.222004715833333,1.9,10.1021/jacs.5b03986,Chalcogenides,1
TiCoSb,mp-5967,True,False,1.043199999999999,-0.658718782222221,1.0,10.1039/c4mh00142g,Antimonides,1
Ba3AlAs3,mp-1192376,True,False,0.6837999999999991,-1.04244424357143,0.57,10.1016/j.jallcom.2015.10.283,Arsenides,1
Ba2ZnSe3,mp-1190528,False,False,1.6214,-1.834850999505208,2.6,10.1016/j.jes.2014.06.051,Chalcogenides,1
ZnPS3,mp-3342,False,False,1.98,-0.497086328813341,2.6,10.1039/c6ra14101c,Chalcogenides,1
Ba3MgTa2O9,mp-6325,True,False,3.2733,-3.413043947644446,4.28,10.1016/j.jssc.2007.12.007,Oxides,1
InTeI,mp-29234,True,False,1.7076,-0.695439618611109,2.735,10.1039/c9nr10619g,Halides,2
Zn(NO3)2,mp-772617,True,True,3.4277,-0.9987428158333332,3.75,10.1016/j.tsf.2015.10.047,Oxides,1
TiNCl,mp-27850,True,False,0.5636999999999991,-1.772338020972223,2.5,10.1039/c2jm16225c,Halides,1
K3Bi2I9,mp-1120792,False,True,2.5425,-1.136715078339285,2.1,10.1016/j.scriptamat.2019.03.009,Halides,1
YZnAsO,mp-546011,True,False,1.2015,-1.966997731874999,1.1731,10.1007/s11771-011-0793-4,Arsenides,2
InPS4,mp-20790,True,False,2.3185,-0.483963878204363,3.12,10.7567/JJAPS.39S1.279,Chalcogenides,1
GdTaO4,mp-4875,True,False,3.3217,-3.6930033878888873,0.8,10.1016/j.optmat.2018.01.003,Oxides,1
UO3,mp-375,True,False,1.634999999999999,-3.612179313749998,4.0,10.1038/s41598-018-32903-3,Oxides,1
CsBaPS4,mp-1192526,True,False,2.3742,-1.491133315614003,3.4,10.1039/c4ta04757e,Chalcogenides,1
FePS3,mp-2931287,False,True,0.5063999999999991,-0.556488057928569,3.14,10.1039/c9nr04348a,Chalcogenides,1
BrCl,mp-1066781,True,False,1.783,-0.359564575,2.94,10.1007/s11164-020-04082-2,Halides,1
BaReH9,mp-28911,True,False,3.8349,-0.418383138522722,3.44,10.1016/S0925-8388(99)00549-6,Hydrides,1
Na2Si2O5,mp-3193,True,False,4.4712,-2.902866989473182,4.22,10.1039/c5ta04474j,Silicides,2
Tl2TeI6,mp-31077,True,False,1.684399999999999,-0.641614162037035,1.5,10.1039/c9nj03660a,Halides,2
V4O7,mp-555597,False,False,0.5857,-2.490850337272725,0.8,10.1021/jacs.5b03986,Oxides,1
Li3AlN2,mp-13944,True,False,3.162099999999999,-1.045083798333333,4.4,10.1016/j.physb.2010.02.033,Nitrides,1
Ba2In2S5,mp-22841,True,False,1.8678999999999992,-1.581863708287033,2.47,10.1039/c9tc06999b,Chalcogenides,1
SrTa4O11,mp-541462,True,False,3.5232,-3.431262843708332,4.0,10.1039/c8cy00283e,Oxides,1
SrTiO3,mp-4651,True,True,1.848799999999999,-3.551662291666667,3.2,10.1016/j.cej.2013.03.030,Oxides,1
LaBWO6,mp-1211317,False,True,3.8287,-2.909348835462962,4.1,10.1016/j.optmat.2014.03.031,Oxides,1
Ag2SO4,mp-5625,True,False,1.2289,-1.25647538940476,3.8,10.1007/s11051-016-3726-1,Chalcogenides,2
Zn2In2O5,mp-1094040,False,True,0.571299999999999,-1.821166763703704,2.9,10.1016/S0040-6090(99)01098-6,Oxides,1
SnCl2,mp-29179,True,False,3.1002,-1.055039141666666,2.9,10.1039/c5gc00021a,Halides,1
CsInTe2,mp-1199743,True,False,1.3522,-0.9334211846875,2.16,10.1039/c1dt11836f,Chalcogenides,1
MnBr2,mp-28306,True,False,1.5962,-1.169033052643679,3.76,10.1039/c7cp05732f,Halides,1
Sr2LaGaO5,mp-1218758,False,True,3.596399999999999,-3.110187525277778,4.6,10.1039/c9tc04938j,Oxides,1
K3Cr2(PS4)3,mp-559251,False,False,1.378099999999999,-0.938507960658927,1.35,10.1002/1521-3749(200207)628:7<1511::AID-ZAAC1511>3.0.CO;2-P,Chalcogenides,1
TlGaSe2,mp-17254,True,False,1.3543999999999992,-0.6917579945312471,1.88,10.1016/j.physb.2003.09.266,Chalcogenides,1
LaBr3,mp-23263,True,False,2.9266,-2.423042803749999,3.75,10.1016/j.tsf.2008.03.020,Halides,1
InSb2Se4Br,mp-570321,False,False,1.1103,-0.7087397195052071,1.35,10.1016/j.jallcom.2006.10.056,Antimonides,3
LiInP2O7,mp-8491,True,False,3.9726,-2.6025876490259723,4.6,10.1016/j.optmat.2007.02.009,Oxides,2
CaMn2O4,mp-18844,True,False,2.0103,-2.447901434051724,1.67,10.1007/s10854-016-6087-8,Oxides,1
MgCr2O4,mp-19202,True,False,3.139,-2.628915883571424,0.693,10.1007/s10973-013-3531-3,Oxides,1
ZrSiO4,mp-4820,True,False,4.1495,-3.55875977333333,4.0,10.1039/c8pp00315g,Silicides,2
NaBi(WO4)2,mp-1220818,False,True,3.4038,-2.078135593448275,3.02,10.1016/j.optmat.2018.12.029,Oxides,1
K2ZrSi2O7,mp-559489,True,False,4.524699999999999,-3.186144017249999,4.95,10.1039/c6tc01449f,Silicides,2
NaLaTi2O6,mp-1220785,False,True,2.0801,-3.436417339804598,3.28,10.1007/s10854-015-3809-2,Oxides,1
BaO,mp-1342,True,False,2.0906,-2.8236427075,3.56,10.1016/j.optmat.2015.10.007,Oxides,1
CsPbI2Br,mp-2646981,False,True,1.4384,-1.352837310931034,1.91,10.1039/c7ta09122b,Halides,1
Cs3Bi2I9,mp-669458,True,False,2.3796,-1.213807587426111,2.0,10.1016/j.physb.2017.08.079,Halides,1
Cu2WSe4,mp-1025340,True,True,1.275699999999999,-0.400722725178574,1.64,10.1007/s10854-017-7970-7,Chalcogenides,1
Ca4Bi6O13,mp-757343,False,True,1.7193,-2.238789148478262,2.76,10.1007/s10853-005-1223-5,Oxides,1
Ga2O3,mp-886,True,False,2.007799999999999,-2.268996668999999,4.8,10.1016/j.cej.2013.09.088,Oxides,1
BaMnF4,mp-556850,False,False,2.3195,-3.560061476321838,1.0,10.1039/c5cp05864c,Halides,1
BaFe12O19,mp-554293,False,False,1.2425,-1.73529611109375,2.0,10.1039/c4nr05657d,Oxides,1
Sr2P7Br,mp-1195664,True,False,2.133099999999999,-0.7776184609999971,2.1,10.1002/zaac.201500140,Halides,2
Ba8Sn4S15,mp-1195594,True,False,2.0554,-1.731574464629628,2.31,10.7567/JJAPS.39S1.279,Chalcogenides,1
LiNb3O8,mp-3368,True,False,3.017,-2.980640704027777,3.9,10.1039/c3ra45520c,Oxides,1
LiGaS2,mp-3647,True,False,2.9608,-1.276394505208333,3.635,10.1016/j.optmat.2014.12.046,Chalcogenides,1
RbAg5(PS4)2,mp-1195102,False,False,1.162499999999999,-0.564735202351189,2.4,10.1002/anie.201602317,Chalcogenides,1
Ag8GeS6,mp-9770,True,False,0.6102000000000001,-0.326871861055552,1.45,10.1039/c6ta00398b,Chalcogenides,1
Ba8Ti3Nb4O24,mp-1228557,False,True,1.9693,-3.337986506923076,3.4,10.1016/j.ceramint.2012.06.067,Oxides,1
SbI3,mp-23281,True,False,2.1446,-0.643452289999999,2.3550000000000004,10.1039/c8qi00902c,Antimonides,2
Tb2O3,mp-1056,True,False,3.9006,-3.9821810734166654,0.95,10.1007/s10948-016-3898-z,Oxides,1
ZnSiN2,mp-1020712,True,False,3.1944,-0.994469309375,3.875,10.1039/d0tc01578d,Silicides,2
BeTe,mp-252,True,False,2.017299999999999,-0.570361940833332,2.895,10.1016/j.physb.2011.09.127,Chalcogenides,1
CsInSe2,mp-1200720,True,False,1.630199999999999,-1.156074467656246,2.81,10.1039/c1dt11836f,Chalcogenides,1
Ba5Nb4O15,mp-3563,True,False,2.5999,-3.271554933958334,3.81,10.1016/j.jallcom.2015.05.052,Oxides,1
TlPb2Br5,mp-1208111,False,True,2.9509,-1.251198734479167,2.92,10.1016/j.optmat.2013.09.004,Halides,1
TlAsS2,mp-4988,True,False,1.812399999999999,-0.510845625833333,1.3,10.1016/S0040-6090(02)00500-X,Arsenides,2
KBaAsSe3,mp-1191826,True,False,1.6299,-1.339824936963542,2.26,10.1021/cg5001446,Arsenides,2
NaMgAs,mp-5962,True,False,0.9547999999999992,-0.7864752741666661,0.97,10.1039/c6tc00461j,Arsenides,1
HfS3,mp-9922,True,False,1.1326,-1.373083094609374,2.2,10.1039/d0ra07160a,Chalcogenides,1
Ba2YTaO6,mp-12385,True,False,3.463899999999999,-3.5674410347333323,3.5,10.1016/j.physb.2014.07.036,Oxides,1
Rb2AgPS4,mp-1105212,True,False,2.2636,-0.990332531413689,2.6,10.1002/anie.201602317,Chalcogenides,1
Rb2PdF6,mp-14088,True,False,2.2306,-2.402987928888889,2.67,10.1016/j.jece.2017.10.010,Halides,1
K2Ta4O11,mp-1195471,True,False,3.3655,-3.200980261990259,4.15,10.1039/c6cp02868c,Oxides,1
CsInS2,mp-559459,True,False,2.4776,-1.18026703953125,3.4,10.1021/cm0499242,Chalcogenides,1
Li2HfO3,mp-2724101,True,True,4.0573,-3.170408328611111,0.5,10.1016/j.optmat.2011.12.024,Oxides,1
CBr4,mp-680422,True,False,2.9265,-0.216432147375,3.7,10.1021/jacs.5b03986,Halides,1
C2F,mp-683965,False,False,2.1158,-0.665488622407407,3.94,10.1016/j.commatsci.2012.06.038,Halides,2
Na2Ge2Se5,mp-17964,True,False,1.4997,-0.8632113688308221,2.31,10.1039/d0cp03521a,Chalcogenides,1
KSm2CuS4,mp-11604,True,False,1.013,-1.889615164656249,2.17,10.1021/ic034600l,Chalcogenides,1
Rb3Sb2I9,mp-1209693,True,True,1.9237,-1.114254693392857,2.1,10.1039/d0nr06138g,Antimonides,2
KLa(PO3)4,mp-540962,True,False,4.8558,-2.930340037545635,4.905,10.1016/j.jallcom.2014.04.167,Oxides,1
Li2ZrO3,mp-4156,True,False,3.7336,-3.040215971111112,4.74,10.1039/c3cp51101d,Oxides,1
Bi2Pd(SeO3)4,mp-1201497,False,False,1.7711,-1.338853224703947,1.73,10.1039/c1dt11836f,Chalcogenides,2
ZnSe,mp-1190,True,False,1.1663,-0.951561031171876,2.7,10.1016/j.cej.2013.03.025,Chalcogenides,1
BaGa4S7,mp-4309,True,False,2.58,-1.258073524791666,3.54,10.1039/c7ra01142c,Chalcogenides,1
BiB2O4F,mp-558753,False,False,4.1919,-2.618454928437499,4.32,10.1039/c9nj05873g,Halides,2
Sr3Ti2O7,mp-3349,True,False,1.8404999999999991,-3.4925284151388603,3.2,10.1039/c4ra11985a,Oxides,1
SiSe2,mp-1250007,True,True,2.4771,-0.5185735381249991,1.74,10.1039/c1nr10844a,Silicides,2
NaVO3,mp-19083,True,False,3.2386,-2.375747678275863,2.495,10.1039/c4cp01000k,Oxides,1
AgSbS2,mp-3922,True,False,1.3716,-0.249630471406248,1.45,10.1007/s12648-019-01607-3,Antimonides,2
MnMoO4,mp-19455,True,False,1.409699999999999,-2.083752250488489,1.96,10.1007/s10854-017-6684-1,Oxides,1
Na2W4O13,mp-32533,True,True,1.808499999999999,-2.215550446724137,2.95,10.1039/b821209k,Oxides,1
TiCl4,mp-30092,True,False,3.4576,-1.725360933333334,2.975,10.1016/j.matpr.2020.02.088,Halides,1
CuBS2,mp-12954,True,False,1.742499999999999,-0.5917289910416661,3.61,10.1039/c6dt04767j,Chalcogenides,1
Rb2Cd3S4,mp-18556,True,False,1.8924,-1.049425331666664,2.92,10.1021/ic010069n,Chalcogenides,1
Tl6SeI4,mp-28517,False,False,1.6854,-0.772034905667617,1.86,10.1007/s13391-018-0033-2,Halides,2
Dy3GaS6,mp-1189242,True,False,2.061499999999999,-2.001222722687498,2.81,10.7567/JJAPS.39S1.279,Chalcogenides,1
RbPSe6,mp-17945,True,False,1.8728999999999991,-0.695075516400669,2.18,10.1039/C2JM33029F,Chalcogenides,1
SiC,mp-1204356,True,False,1.8389,-0.203882166618421,2.5,10.1016/j.cej.2015.06.103,Silicides,2
Na2Ga2GeS6,mp-1190388,True,False,2.6215,-1.082011126159873,3.29,10.1021/acs.inorgchem.6b00535,Chalcogenides,1
PtN2,mp-1095618,False,True,1.3251,0.214806325833331,1.06,10.1007/s10853-019-03886-x,Nitrides,1
BaTiO3,mp-5777,True,False,2.293,-3.492277977666666,3.2,10.1016/j.jece.2017.04.038,Oxides,1
RhBr3,mp-27871,True,False,1.2584,-0.8457965725000001,1.76,10.1039/c9cp06240h,Halides,1
Ba3SiO5,mp-7765,False,False,3.242199999999999,-3.238230593333332,3.04,10.1039/c9cp05576b,Silicides,2
Cs2MgGe3Se8,mp-1195667,True,False,1.4687,-0.9834246223614532,2.04,10.1021/ic400995z,Chalcogenides,1
LiZnPS4,mp-11175,True,False,2.731199999999999,-0.946090331139454,3.44,10.7567/JJAPS.39S1.279,Chalcogenides,1
Cs2ZnGe3Se8,mp-1194749,True,False,1.4028,-0.913369856468596,2.31,10.1021/ic400995z,Chalcogenides,1
Ag2S,mp-556225,False,True,1.0853,-0.118032977604165,1.09,10.1016/j.jece.2017.11.071,Chalcogenides,1
Cs2HgI4,mp-28421,True,False,2.0411,-1.263691933830049,2.34,10.1016/j.optmat.2015.01.026,Halides,1
SbTeI,mp-28051,False,False,0.8429000000000001,-0.495501532222224,1.53,10.1007/s00894-018-3608-9,Antimonides,3
Sr2SmTaO6,mp-1208761,True,True,3.7716,-3.545386613233334,3.38,10.1039/c6dt04767j,Oxides,1
KNb3O8,mp-27998,True,False,2.4752,-2.986958873937498,4.1,10.1039/b210055j,Oxides,1
SnS2,mp-1170,True,False,1.514799999999999,-0.473328491874999,2.2,10.1016/j.cej.2014.05.103,Chalcogenides,1
SbSI,mp-23041,True,False,1.6276000000000002,-0.6055336799999951,1.86,10.1039/c4ee03523b,Antimonides,3
Ba2V2O7,mp-19474,True,False,3.4599,-2.922540033863693,3.22,10.1039/d0nj02316g,Oxides,1
Li2PtO3,mp-531826,True,True,1.842,-1.682490645,2.3,10.1007/s10800-019-01287-1,Oxides,1
Y2Cl3,mp-27678,True,False,0.760699999999999,-2.092601786499999,1.14,10.1038/s41524-018-0136-1,Halides,1
K2Au(IO3)5,mp-1195201,True,False,1.9927,-1.03311708823913,2.285,10.1111/jace.13961,Halides,2
Dy2Ti2O7,mp-752425,True,True,3.0572,-3.788647775681884,3.1,10.1007/s10854-016-5179-9,Oxides,1
SrMnO3,mp-19001,False,False,0.9027,-2.496220726086208,1.2,10.1016/j.physb.2010.05.056,Oxides,1
SiAs,mp-1863,True,False,1.451899999999999,-0.119684392083333,1.525,10.1021/jacs.5b03986,Arsenides,2
K2La2Sb2S9,mp-1223734,True,True,1.1627,-1.437304819466665,2.2,10.1002/zaac.200900427,Antimonides,2
Na2S2O3,mp-4199,False,False,4.0764,-1.731945728965516,0.98,10.1007/s10854-018-9297-4,Chalcogenides,2
KAg2SbS4,mp-9490,False,False,0.569599999999999,-0.471152292926221,1.63,10.7567/JJAPS.39S1.279,Antimonides,2
Ca2SnS4,mp-866503,True,False,2.2605,-1.677767615357142,2.52,10.1016/j.jssc.2006.11.018,Chalcogenides,1
TlGaS2,mp-4016,True,False,1.7885,-0.884232564895834,2.925,10.1007/s12648-014-0636-x,Chalcogenides,1
Ba3LaNb3O12,mp-1228150,False,True,2.6586,-3.299096265526316,4.1,10.1039/b818922f,Oxides,1
Bi2S3,mp-22856,True,False,1.361799999999999,-0.414038356187501,1.3,10.1016/j.cej.2016.05.126,Chalcogenides,1
La2MnNiO6,mp-1223253,False,True,1.580499999999999,-2.823589000793103,1.133,10.1016/j.jssc.2004.03.031,Oxides,1
Sr2ScSbO6,mp-1106218,True,False,3.5074,-3.113772652999999,3.47,",180 p.",Antimonides,2
Mg3V2O8,mp-19034,True,False,3.336299999999999,-2.752985765000001,3.02,10.1016/j.jssc.2004.12.024,Oxides,1
Cu2O,mp-361,True,False,0.512699999999999,-0.6445054383333331,2.1,10.1016/j.cej.2014.06.031,Oxides,1
InSbO4,mp-1212067,True,True,0.9405999999999992,-1.951885891944443,4.05,10.1016/S0040-6090(03)00979-9,Antimonides,2
Na2CdSnS4,mp-2831941,True,True,1.951,-1.028179383469826,2.52,10.1021/ic020324j,Chalcogenides,1
CaGeO3,mp-17761,True,False,3.481299999999999,-2.749981945333333,2.03,10.1021/ic062120z,Oxides,1
CaSiN2,mp-568965,True,False,3.508800000000001,-1.4052441181250002,3.44,10.1039/d0tc03964k,Silicides,2
BiIO4,mp-1191266,True,False,2.3939999999999992,-1.235655969166666,3.0700000000000003,10.1039/c3ra45891a,Halides,2
BaCu2GeS4,mp-17947,True,False,0.973599999999999,-1.057595308958333,2.465,10.1039/c7ra05022d,Chalcogenides,1
Ba4LiGa5Se12,mp-1197353,False,False,1.7354,-1.4698236290435611,2.65,10.1021/cm400634v,Chalcogenides,1
Sb2Se3,mp-2160,True,False,0.7564000000000001,-0.284494587937501,1.2,10.1016/j.cej.2020.124599,Antimonides,2
CaTiO3,mp-4019,True,False,2.3053,-3.556087157166666,3.5,10.1016/j.cej.2020.125721,Oxides,1
Ag2Mo2O7,mp-27966,True,False,1.9011,-1.507470650757574,2.685,10.1039/c5ta02337h,Oxides,1
NaNO3,mp-4531,True,False,2.9451,-1.363196969275862,2.92,10.1007/s12648-015-0820-7,Oxides,1
CsSmZnSe3,mp-505709,True,False,2.042399999999999,-1.644281941114404,2.53,10.1021/ic800370r,Chalcogenides,1
Na3PS4,mp-28782,True,False,2.291899999999999,-1.119360224847598,2.3,10.1039/d0cp03487h,Chalcogenides,1
BaPd(IO3)4,mp-1106270,True,False,1.905799999999999,-1.160546170555555,1.97,10.1021/ic101627v,Halides,2
DyMn2O5,mp-18601,True,False,1.0799,-2.652315557191061,1.61,10.1016/j.physb.2017.03.017,Oxides,1
CsAu,mp-2667,True,False,1.023299999999999,-0.36518307,2.6,10.1039/c7cp05027e,Others,0
K2CO3,mp-3963,True,False,3.649,-2.110088034916663,4.9,10.1038/s41467-019-13712-2,Oxides,1
YAgTe2,mp-12903,True,False,0.8975000000000001,-1.125885941249998,1.36,10.1039/c8ta06470a,Chalcogenides,1
CdI2,mp-570437,True,False,2.3382,-0.827083558444443,3.2,10.1016/j.tsf.2008.01.004,Halides,1
Cs2GeP4O13,mp-560216,True,False,4.236700000000001,-2.59129854014409,3.888,10.1021/jp901706g,Oxides,2
CsYCdSe3,mp-11116,True,False,2.085499999999999,-1.58216651028107,2.56,10.1103/PhysRevB.65.045205,Chalcogenides,1
Mg3N2,mp-1559,True,False,1.952799999999999,-0.9422394225,2.03,10.1016/S0921-4526(03)00387-9,Nitrides,1
CsLu7Se11,mp-1203743,True,False,1.510499999999999,-2.105457755900163,1.78,10.1143/JJAP.50.031102,Chalcogenides,1
AgBr,mp-23231,True,False,0.730399999999999,-0.6596210383333321,2.6,10.1016/j.cej.2013.03.091,Halides,1
Fe3O4,mp-1271821,False,True,1.0229,-1.620945976785714,1.82,10.1016/j.cej.2010.09.001,Oxides,1
Ba3Ta2Se9,mp-1195068,True,False,1.202,-1.576411595947172,1.6,10.1021/cm401737s,Chalcogenides,1
PbN6,mp-667338,False,False,2.5064,0.418739402619045,3.0,10.1021/jacs.5b03986,Nitrides,1
YNbO4,mp-5387,True,False,3.497499999999999,-3.543508845,4.3,10.1016/j.cej.2016.03.149,Oxides,1
ReSe2,mp-541582,True,False,1.1434,-0.463165817708329,1.18,10.1039/d0dt01164a,Chalcogenides,1
Ca2ScSbO6,mp-1189528,True,False,3.6317999999999993,-3.1275018395,3.645,",180 p.",Antimonides,2
ZnCO3,mp-9812,True,False,3.5639000000000003,-1.822478180500002,3.34,10.1038/srep05172,Oxides,1
Cs2Hg3S4,mp-1105419,True,False,1.732499999999999,-0.780273871867816,2.8,10.1016/j.jssc.2014.10.022,Chalcogenides,1
K2AgF4,mp-1104293,True,False,0.6126,-2.347875460880952,1.8,10.1039/b902161b,Halides,1
TeO2,mp-8377,True,False,3.0604,-1.4950600038888862,3.7,10.1016/j.rinp.2019.102315,Chalcogenides,2
Cs2S,mp-540703,True,False,2.0952,-1.198283363437499,4.035,10.1039/c7ra07621e,Chalcogenides,1
YVO4,mp-19133,True,False,2.976,-3.184120813333332,3.6,10.1016/j.jece.2018.04.011,Oxides,1
CuBSe2,mp-983565,True,False,1.487,-0.186407557656249,2.315,10.1039/c0ce00818d,Chalcogenides,1
MgSiN2,mp-3677,True,False,3.9662,-1.346008759375,4.3,10.1007/s10948-013-2253-x,Silicides,2
ZrTiO4,mp-753891,False,True,2.8427,-3.613995620555555,3.5,10.1039/c0jm00675k,Oxides,1
Cs2TeI6,mp-540957,True,False,1.3877000000000002,-1.072450026219666,1.47,10.1039/c9nj03660a,Halides,2
ZnI2,mp-27161,True,False,2.9118,-0.8721765856249991,3.28,10.1039/c8cs00255j,Halides,1
Rb3Sb2Br9,mp-1194576,True,False,2.149,-1.508562501607142,2.48,10.1021/ja200257a,Antimonides,2
Cs2AgSbCl6,mp-1112940,True,True,1.662399999999999,-1.6529799450977012,2.54,10.1016/j.cej.2020.124757,Antimonides,2
Rb3AgSn3Se8,mp-571164,True,False,1.3666,-0.917866301527776,1.8,10.1039/c0dt01381a,Chalcogenides,1
LiVMoO6,mp-1222368,False,True,2.7403,-2.178402661481482,2.505,10.1016/j.cej.2013.08.091,Oxides,1
Ba2SnSe5,mp-31307,True,False,1.0872,-1.5117992986523432,1.8,10.1016/j.jssc.2005.04.007,Chalcogenides,1
Si3N4,mp-988,True,False,4.2503,-1.320943462857144,5.0,10.1016/j.matpr.2017.12.373,Silicides,2
Ba2ErTaO6,mp-1205803,True,True,3.393399999999999,-3.600573126733332,2.5,10.1039/c9ra01797f,Oxides,1
BaHfO3,mp-998552,True,True,3.5394,-3.786714650999999,3.0,10.1016/j.physb.2010.06.051,Oxides,1
MgNb2O6,mp-17953,True,False,3.456699999999999,-3.098160845555563,2.19,10.1007/s40033-015-0094-4,Oxides,1
PbBr2,mp-2456335,True,True,2.642699999999999,-1.293377115833332,3.27,10.1021/jacs.5b03986,Halides,1
AgBiS2,mp-29678,False,False,0.5212,-0.289343481822921,0.98,10.1016/j.physb.2019.04.006,Chalcogenides,1
Na2S,mp-648,True,False,2.4399,-1.2689239159375,1.62,10.1039/c3ce42606h,Chalcogenides,1
Sr5Ta4O15,mp-769582,True,True,3.044399999999999,-3.477598544763891,4.75,10.1039/c2pp25200g,Oxides,1
Gd2S3,mp-669509,True,False,0.5267000000000001,-2.334266813187497,2.63,10.1039/d0nr03094e,Chalcogenides,1
LiSi,mp-570363,False,False,1.3839,0.043562903958333,0.755,10.1016/j.intermet.2009.08.012,Silicides,1
Mg2NiH4,mp-697331,True,False,1.571899999999999,-0.3319514775,1.6,10.1016/j.tsf.2012.07.044,Hydrides,1
Cs2ZnSn3Se8,mp-1194701,True,False,1.2553,-0.9429949005757392,2.12,10.1021/ic400995z,Chalcogenides,1