formula,mpids,is_stable,theoretical,band_gap,formation_energy_per_atom,Value,DOI,compound_type,Category_count
BaSi2,mp-1477,True,False,0.7812999999999991,-0.312893252083338,1.3,10.1016/j.tsf.2004.02.074,Silicides,1
BaZrO3,mp-1019544,True,False,3.1163,-3.639240691,4.8,10.1016/j.tsf.2007.09.041,Oxides,1
BaZrS3,mp-540771,True,False,0.99,-2.107120602499998,1.83,10.1039/c7ee02702h,Chalcogenides,1
NaSbF6,mp-5955,True,False,4.8892,-2.864664735797413,3.76,10.1021/acs.inorgchem.7b00309,Antimonides,2
BiTeBr,mp-33723,True,True,1.2364,-0.8220315505555551,0.6,10.1039/c8cc05149f,Halides,2
Li7VN4,mp-4604,True,False,3.035199999999999,-0.9590333469097212,1.4,10.1016/j.jallcom.2013.04.200,Nitrides,1
RbNb2PSe10,mp-1192452,True,False,0.912999999999999,-0.9168557968271672,1.15,10.1021/ic502724n,Chalcogenides,1
AlP,mp-1550,True,False,1.6294,-0.737248783988095,2.48,10.1016/j.matpr.2020.05.260,Phosphides,1
Cd4SiS6,mp-18179,False,False,1.4382,-0.7622832933522701,2.5,10.1007/s11671-009-9470-z,Silicides,2
Cs2InSbCl6,mp-1112887,False,True,1.3727,-1.7202351885977012,1.0,10.1039/c7ta04544a,Antimonides,2
CsNb2PSe10,mp-1195822,True,False,0.8597999999999991,-0.9275834555525372,1.15,10.1021/ic502724n,Chalcogenides,1
KMnO4,mp-19046,False,False,2.081099999999999,-1.453729503780173,1.04,10.1039/c8ta09785b,Oxides,1
VS4,mp-541155,True,False,0.9239,-0.9502931734999992,1.0,10.1039/c5ta03221k,Chalcogenides,1
VO2,mp-541404,True,False,0.7584000000000001,-2.522468176666668,0.7,10.1016/j.cej.2018.01.107,Oxides,1
PbWO4,mp-504591,True,False,2.9475,-2.054140709166665,3.81,10.1016/j.cej.2012.12.064,Oxides,1
CsHgSbSe3,mp-1225936,False,True,1.0746,-0.750530919031071,1.89,10.1039/c2dt30366c,Antimonides,2
Rb3Bi2Br9,mp-1195363,True,False,2.818,-1.577431055714285,2.62,10.1021/ja200257a,Halides,1
Na2Ti3O7,mp-3488,True,False,2.9953000000000003,-3.160181039813217,3.51,10.1016/j.cej.2019.122209,Oxides,1
ZnO2,mp-8484,False,False,2.1576,-1.058444209166666,3.6,10.1016/j.matpr.2017.02.300,Oxides,1
GaS,mp-2507,True,False,2.0036,-0.763737817656249,2.5,10.1016/j.matpr.2020.05.070,Chalcogenides,1
Tl2TeS3,mp-17172,False,False,1.2603,-0.458696173055557,1.6,10.1016/j.jssc.2007.10.005,Chalcogenides,1
SnI4,mp-23182,True,False,2.0581,-0.6773522655,2.38,10.1021/jacs.5b03986,Halides,1
WS2,mp-224,True,False,1.2557,-0.882938771874999,1.8,10.1038/srep15718,Chalcogenides,1
CuN3,mp-27954,False,True,1.6279,0.293795457499999,4.565,10.1021/jacs.5b03986,Nitrides,1
PdSe2,mp-1120759,False,True,1.3767,-0.270646422708331,1.0750000000000002,10.1039/c8tc06050a,Chalcogenides,1
Ba2ScTaO6,mp-1205823,True,True,3.0173,-3.593178310233333,4.19,10.1016/j.jssc.2007.12.007,Oxides,1
CsLaHgSe3,mp-11124,True,False,1.4545,-1.531723224864403,2.485,10.1021/ic800370r,Chalcogenides,1
AgBiSCl2,mp-556094,True,False,1.0752,-0.945403372833334,1.0,10.1039/b408306g,Halides,2
KNaTe,mp-8755,True,False,1.9491,-1.213264275416667,2.12,10.1016/j.physb.2018.05.025,Chalcogenides,1
Cs2Mg2(WO4)3,mp-1195571,False,False,4.659,-2.427450129174229,4.53,10.1002/ejic.201500009,Oxides,1
LaGaGe2O7,mp-1212633,False,True,3.1959,-2.6129290129545453,3.3,10.1039/c5ra01714a,Oxides,1
SrTe,mp-1958,True,False,1.7616,-2.0176923,3.5,10.1016/j.physb.2010.10.038,Chalcogenides,1
Li4TiO4,mp-9172,True,False,4.5573,-2.707544761296296,4.64,10.1039/c9tc00197b,Oxides,1
K2CdO2,mp-27742,True,False,1.3562,-1.406970080899999,3.36,10.1039/c9ta13105a,Oxides,1
LiTeO3,mp-755231,False,True,2.1534,-1.7506827875000002,2.0,10.1038/s41467-018-05137-0,Chalcogenides,2
CaWO4,mp-19426,True,False,4.3443,-2.726062027499999,4.325,10.1016/j.optmat.2019.04.026,Oxides,1
CsYHgSe3,mp-11123,True,False,1.3946,-1.4574503873644051,2.54,10.1103/PhysRevB.65.045205,Chalcogenides,1
LiFe5O8,mp-21735,False,False,1.3685,-1.7119847100595251,1.765,10.1039/c6nj01790h,Oxides,1
TlPbI3,mp-27552,False,False,2.1427,-0.8882086816666671,1.33,10.1007/s13391-018-0033-2,Halides,1
La8Sb2S15,mp-1195582,True,False,1.935799999999999,-2.112369190799999,2.3,10.1021/ic502362f,Antimonides,2
Rb3Nb2AsSe11,mp-683902,True,False,1.181199999999999,-1.038247646810662,1.5,10.1021/ic001157v,Arsenides,2
Na3PO4,mp-674333,True,True,3.9187,-2.518010732972598,2.2,10.1016/j.mseb.2007.02.014,Oxides,1
Sr(NO3)2,mp-4157,True,False,3.7142,-1.571446753333333,1.63,10.1007/s00339-018-2012-8,Oxides,1
AgNO3,mp-552185,True,False,1.853899999999999,-0.6806635453333341,1.86,10.1039/c8en00570b,Oxides,1
BiF3,mp-23237,True,False,4.6808,-2.623305978125,3.94,10.1039/c6tc00447d,Halides,1
NaNb2PS10,mp-557436,True,False,1.315599999999999,-1.043721467751583,1.72,10.1016/S0925-3467(01)00234-8,Chalcogenides,1
SrTa2O6,mp-17715,True,False,3.2307,-3.487587180518501,4.49,10.1016/j.tsf.2016.12.003,Oxides,1
Cu3PS4,mp-3934,True,False,1.0202,-0.362097385528272,2.3,10.1039/c6tc05510a,Chalcogenides,1
Tb4Al2O9,mp-1200490,False,False,4.0883,-3.818433524444445,4.59,10.1021/cm801887v,Oxides,1
CsCu2AsS3,mp-1196438,True,False,1.3532,-0.694192739415024,2.3,10.1021/ic302027b,Arsenides,2
In2O3,mp-22598,True,False,0.6305000000000001,-1.994067387666665,3.3,10.1016/j.cej.2011.09.054,Oxides,1
Ba3GeS5,mp-1200759,True,False,2.0632,-1.861464824166668,3.0,10.1016/j.jallcom.2014.07.135,Chalcogenides,1
MgV2O4,mp-1041014,False,True,1.2114,-2.6830051392857133,2.81,10.1039/c9dt03468d,Oxides,1
PbSeO4,mp-22342,True,False,3.192299999999999,-1.403858754557288,4.3,10.1002/zaac.201500211,Chalcogenides,2
AgP15,mp-1195243,False,False,1.2132,0.002923476897322,1.38,10.1021/acs.inorgchem.5b02074,Phosphides,1
MnI2,mp-28013,True,False,1.170799999999999,-0.7063810159770101,4.220000000000001,10.1021/jacs.5b03986,Halides,1
KNbO3,mp-7375,True,False,2.2934,-2.852127680450001,3.24,10.1016/j.matpr.2017.07.032,Oxides,1
AgCl,mp-22922,True,False,0.9522,-0.568439933749999,3.25,10.1016/j.cej.2013.10.085,Halides,1
BaThO3,mp-1189614,True,True,4.047,-3.7750959409999982,3.0,10.1016/j.optmat.2010.10.052,Oxides,1
TeI,mp-569766,True,False,0.7871,-0.271386257083333,1.1,10.1021/jacs.5b03986,Halides,2
RbLaTa2O7,mp-541600,False,False,2.2853,-3.382045553833332,3.81,10.1016/j.jece.2018.11.034,Oxides,1
Nd2O3,mp-1045,True,False,3.708,-3.781547341499998,3.875,10.1007/s00339-013-7611-9,Oxides,1
CsAgSb4S7,mp-554408,False,False,1.456,-0.654281527986294,2.04,10.1016/j.jssc.2004.10.014,Antimonides,2
SrSc2O4,mp-770771,True,True,3.6335,-3.737810427499999,4.6,10.1039/c9qi00443b,Oxides,1
MnCO3,mp-18814,True,False,3.2291,-2.01344806708621,3.104,10.1016/j.cej.2019.123161,Oxides,1
MoS3,mp-1239169,False,True,0.7267,-0.4211942334375,1.5,10.1039/c9qi00623k,Chalcogenides,1
RbInSe2,mp-31309,True,False,1.646199999999999,-1.148963117838542,2.0,10.1016/j.jssc.2005.04.007,Chalcogenides,1
ErMnO3,mp-19319,False,False,1.0455,-3.048090045586206,1.6,10.1038/s41524-020-00426-z,Oxides,1
LiZnP,mp-10182,True,False,1.3386,-0.655819149880952,2.04,10.1016/j.tsf.2010.10.045,Phosphides,1
Sr2CoWO6,mp-1274308,True,True,2.0256,-2.605262132499999,2.38,10.1007/s10854-019-00718-1,Oxides,1
Cr2O3,mp-755749,False,True,2.405899999999999,-2.328298080499999,3.08,10.1016/j.cej.2015.11.030,Oxides,1
Rb4Ti3S14,mp-542067,True,False,1.242899999999999,-1.337309552619046,1.59,10.1002/1521-3749(200109)627:9<2178::AID-ZAAC2178>3.0.CO;2-S,Chalcogenides,1
Li2CdSnS4,mp-1188784,True,False,1.9176,-1.103457180833332,3.26,10.1021/ja9040237,Chalcogenides,1
TlS,mp-561066,False,False,1.0387,-0.473641382135419,1.36,10.1021/jacs.5b03986,Chalcogenides,1
TlI,mp-571102,True,False,2.208599999999999,-0.8661446141666691,2.815,10.1007/s13391-018-0033-2,Halides,1
Cs2SnBr6,mp-641923,True,False,1.438899999999999,-1.6117151782567052,2.9,10.1039/c7se00100b,Halides,1
LaMnO3,mp-1180700,False,True,1.1014,-2.967020409086208,1.7,10.1016/j.jallcom.2015.09.187,Oxides,1
Li7P3S11,mp-641703,False,False,2.4883,-1.087633489988661,3.065,10.1039/c9cp05329h,Chalcogenides,2
Gd2Zr2O7,mp-757233,False,True,2.8082000000000003,-3.84645998909091,2.68,10.1039/c6ra05113h,Oxides,1
Al2Se3,mp-11674,True,False,1.8004,-1.0088235364375011,3.1,10.1039/c7tc05311h,Chalcogenides,1
SrAlSi4N7,mp-570577,False,False,3.691399999999999,-1.401743141538463,4.2,10.1039/c3tc31628a,Silicides,2
Sr2SnSe5,mp-568525,True,False,1.2442,-1.360317969570314,0.9,10.1016/j.jssc.2004.04.025,Chalcogenides,1
CsGdZnTe3,mp-1104469,True,False,0.8742999999999991,-1.322230614109195,2.13,10.1016/j.jssc.2004.07.017,Chalcogenides,1
SiGe,mp-1219182,False,True,0.6059999999999991,0.016203427499998,0.51,10.1016/j.optmat.2004.08.005,Silicides,1
Sb4Cl2O5,mp-23419,True,False,2.6466000000000003,-1.691000731363637,3.0,10.1038/ncomms3292,Antimonides,3
Li6Si2O7,mp-27767,False,False,4.995699999999999,-2.742996080333333,4.94,10.1039/c3cp51659h,Silicides,2
SnI2,mp-27194,True,False,1.7061000000000002,-0.7447498127777771,2.4,10.1021/jacs.5b03986,Halides,1
Tl2Hg3Te4,mp-1190100,False,False,0.9897,-0.377375630092595,0.9,10.1021/ic200286t,Chalcogenides,1
Li2In2GeSe6,mp-1191200,False,False,1.5416,-0.9442520171874992,2.3,10.1039/d0cp03521a,Chalcogenides,1
YFeO3,mp-20783,False,False,1.5605,-2.818663723499999,2.375,10.1039/d0ra01375g,Oxides,1
CsYZnSe3,mp-574620,True,False,2.1117,-1.646452730281069,2.35,10.1021/ic800370r,Chalcogenides,1
ZnSeO3,mp-5338,True,False,3.9227,-1.5024296932187502,2.66,10.1007/s10904-020-01615-5,Chalcogenides,2
SrAlSiH,mp-570485,True,False,0.625699999999999,-0.4586405203125,0.63,10.1039/c3ra44248a,Silicides,2
In2Bi3Se7I,mp-1198248,False,False,1.148699999999999,-0.716893375172276,1.5,10.1016/j.jallcom.2006.10.056,Halides,2
LiInSe2,mp-20187,True,False,1.5731000000000002,-1.056964433697915,2.83,10.1007/s00894-014-2528-6,Chalcogenides,1
BaLa4Ti4O15,mp-1228245,False,True,2.8881,-3.71649078763889,3.9,10.1039/c6cp07973c,Oxides,1
CsTbZnTe3,mp-638078,True,False,1.3573,-1.310568081053639,2.12,10.1016/j.jssc.2004.07.017,Chalcogenides,1
SrSnO3,mp-2879,True,False,1.7365,-2.6373586375,4.1,10.1016/j.cej.2009.09.004,Oxides,1
KBaPO4,mp-6812,True,False,4.950299999999999,-3.040540147413266,4.35,10.1007/s10854-015-3745-1,Oxides,1
Ba2SmTaO6,mp-1214622,True,True,3.3634,-3.518325293233334,3.02,10.1039/c6dt04767j,Oxides,1
LiMnBO3,mp-19131,False,False,2.563599999999999,-2.514293998405173,3.05,10.1007/s11581-017-2019-8,Oxides,1
BC2N,mp-629458,False,True,1.661900000000001,-0.192360277291665,1.7000000000000002,10.1016/j.tsf.2010.01.014,Nitrides,2
Ga2Te3,mp-38970,True,True,0.6375000000000001,-0.402236419000001,1.65,10.1039/d0cp00626b,Chalcogenides,1
GeS2,mp-572892,True,False,2.2646,-0.662721194791666,3.71,10.1039/d0na00364f,Chalcogenides,1
Ba2FeBiS5,mp-1202506,False,False,0.625,-1.443725266944444,1.22,10.1021/ja1111095,Chalcogenides,1
Ba2In2Se5,mp-573635,False,False,1.281,-1.515504987089119,2.295,10.1039/c9tc06999b,Chalcogenides,1
La5Ti2CuS5O7,mp-559474,True,False,1.2107,-3.078372617208334,1.9,10.1039/c4cc10297e,Chalcogenides,2
BiSeI,mp-23020,False,False,1.5764,-0.6996693257812511,1.425,10.1039/c5ta09612j,Halides,2
Co2Te3O8,mp-18855,True,False,2.4813,-1.474494457692308,3.6,10.1021/ja034196p,Chalcogenides,2
Au2S,mp-947,True,False,1.9091,-0.118021207604167,1.8,10.1039/b823539b,Chalcogenides,1
LiMnPO4,mp-18997,True,False,3.411499999999999,-2.633428733343891,2.0,10.1039/c2ta01393b,Oxides,1
HgO,mp-1224,True,False,1.1867,-0.635057482500004,2.2,10.1016/j.cej.2009.05.031,Oxides,1
Cs2InAgCl6,mp-1096926,True,True,1.3421,-1.740948753764367,3.3,10.1016/j.comptc.2018.12.007,Halides,1
Sr2P7Cl,mp-1194705,True,False,1.948,-0.8349424483749981,1.9,10.1002/zaac.201500140,Halides,2
MnO,mp-1232659,True,True,1.310499999999998,-2.032569766465519,3.75,10.1016/j.cej.2016.10.067,Oxides,1
Sm2ZrSe5,mp-1198078,True,False,0.8425,-1.966999839414061,1.41,10.1039/c3dt50291k,Chalcogenides,1
Sm2Ti2O7,mp-3335,False,False,2.7306,-3.725298062424243,3.6,10.1039/c4cp00246f,Oxides,1
KPSe6,mp-18625,True,False,1.9067,-0.681722183556918,2.16,10.1039/d0cp03521a,Chalcogenides,1
SiSnO3,mp-776110,False,True,2.6768,-2.5862830018333343,3.1,10.1007/s11082-020-02521-3,Silicides,2
K2TeBr6,mp-22963,True,False,2.336,-1.39301875735185,2.17,10.1021/ja200257a,Halides,2
NdMnO3,mp-20852,True,False,1.898,-2.963478812086206,3.02,10.1038/s41598-019-50393-9,Oxides,1
Cs4PbBr6,mp-23436,True,False,3.682699999999999,-1.87776558260188,3.95,10.1039/c8nr01266k,Halides,1
NaSnP,mp-29529,True,False,0.5826,-0.383468250992062,1.19,10.1039/d0nr03778h,Phosphides,1
Sr2Al2SiO7,mp-1218879,True,True,4.2023,-3.472123711666666,4.11,10.1016/j.optmat.2014.04.037,Silicides,2
KInSnSe4,mp-568379,True,False,1.7413,-0.9416479674345232,1.8,10.1021/ic035273k,Chalcogenides,1
SrCu2GeS4,mp-18685,True,False,1.046299999999999,-1.042533145208333,2.5,10.1021/acs.inorgchem.7b01318,Chalcogenides,1
KCoO2,mp-2423265,False,True,1.3214,-1.4603007874375,1.0,10.1039/c4ra05395h,Oxides,1
Ba2NaReO6,mp-6798,True,False,1.8688,-2.688152365387931,2.45,10.1007/s00894-020-04421-5,Oxides,1
Zn3(PS4)2,mp-30311,False,False,2.431399999999999,-0.5605006970694311,3.13,10.7567/JJAPS.39S1.279,Chalcogenides,1
ZnGeN2,mp-2979,True,False,1.6955,-0.359871936249999,3.2,10.1039/c3ta11192j,Nitrides,1
Ga2S3,mp-539,True,False,1.7106,-0.7969372256875,2.99,10.1016/j.optmat.2018.09.049,Chalcogenides,1
PbS,mp-1057015,False,True,0.5555,-0.7822108212499981,0.7,10.1016/j.cej.2012.07.075,Chalcogenides,1
CsCa2Ta3O10,mp-10347,False,False,2.1798,-3.319276431978449,3.8,10.1039/c0cc05440b,Oxides,1
PdSeO3,mp-545482,True,False,1.0589,-1.032893985468749,2.75,10.1039/c9nr08416a,Chalcogenides,2
CaMg2N2,mp-5795,True,False,1.9968999999999992,-0.929035699999999,3.25,10.1039/c7qi00813a,Nitrides,1
XeF2,mp-22885,True,False,2.686199999999999,-0.783393028333335,3.035,10.1039/c3nr33218g,Halides,1
CdP2,mp-913,True,False,1.4556,-0.181319395734126,0.81,10.1016/S1293-2558(01)01258-4,Phosphides,1
K6Cd4Sn3Se13,mp-6296,False,False,1.4058,-1.005795382268028,2.33,10.1021/ja0474648,Chalcogenides,1
La2S3,mp-7475,True,False,1.0358,-2.507728445187498,2.59,10.1039/c7ee02702h,Chalcogenides,1
RbYS2,mp-999265,True,False,2.3166,-2.091109388124998,4.0,10.1038/srep43179,Chalcogenides,1
LiH,mp-23703,True,False,2.981,-0.489362137708333,2.76,10.1016/j.physb.2004.12.036,Hydrides,1
BaCuTeF,mp-13287,False,False,0.9884,-2.131591924791666,2.65,10.1016/j.tsf.2007.10.073,Halides,2
Ca2Nb2O7,mp-13979,True,False,3.011,-3.297524677045454,2.14,10.1016/j.physb.2018.05.041,Oxides,1
Ca2NiWO6,mp-19114,True,False,2.933,-2.608180873,2.32,10.1039/c6ra26072a,Oxides,1
Sr2SnO4,mp-4287,True,False,2.6531,-2.785275042142856,4.7,10.1039/c8tc04725a,Oxides,1
FeS2,mp-1522,True,False,0.8770000000000001,-0.8468357333333321,0.95,10.1016/j.cej.2012.09.082,Chalcogenides,1
PbI2,mp-567503,True,False,2.4455,-0.9218665316666632,2.32,10.1016/j.matpr.2020.04.074,Halides,1
NiO,mp-19009,True,False,2.300899999999999,-1.218085299999999,3.6,10.1016/j.cej.2018.10.005,Oxides,1
BaGa4Se7,mp-1191072,False,False,1.4955999999999992,-1.145983673033856,2.73,10.1016/j.optmat.2019.109564,Chalcogenides,1
TlP5,mp-27411,True,False,1.184899999999999,-0.044324999146825,2.02,10.1039/c8tc05164j,Phosphides,1
BaSn2S5,mp-1202711,False,False,1.5453,-1.144593454374999,2.335,10.1007/s12648-014-0605-4,Chalcogenides,1
Cd4As2Br3,mp-1203526,True,False,0.9704,-0.6670025541666671,1.825,10.1021/acs.inorgchem.7b00002,Arsenides,2
HNO3,mp-1224772,True,True,3.8657,-0.8903123615,3.75,10.1016/j.tsf.2015.10.047,Oxides,1
Sr2Bi2O5,mp-760510,True,True,2.4829,-2.353507547222223,3.17,10.1016/j.jpcs.2013.11.015,Oxides,1
Na2SbF5,mp-27936,True,False,4.8247,-2.876547361907329,0.6,10.1039/c5tc01687h,Antimonides,2
CO2,mp-995198,False,True,4.2235,-1.450898847499999,2.2,10.1016/j.cej.2017.12.113,Oxides,1
Ba3Sb2S7,mp-1195624,True,False,1.9021999999999992,-1.515530588958332,2.4,10.1016/j.jssc.2014.07.009,Antimonides,2
CsBa2SnS4Cl,mp-1194731,True,False,2.553699999999999,-1.8366005777394632,2.06,10.1002/zaac.201500149,Halides,2
SnBr2,mp-29862,True,False,2.5387,-1.173346578333331,3.45,10.1021/jacs.5b03986,Halides,1
CsGeI3,mp-28377,True,False,0.9905,-1.071458283931036,1.6,10.1016/j.cej.2020.124757,Halides,1
Bi2(MoO4)3,mp-23388,True,False,2.717,-1.8971883242647087,2.77,10.1016/j.cej.2019.123351,Oxides,1
SrCeO3,mp-22428,False,False,2.2817,-3.614131642999999,3.01,10.1007/s10854-019-01963-0,Oxides,1
K3Ta2AsS11,mp-1211748,True,True,1.8918,-1.149100428024509,2.21,10.7567/JJAPS.39S1.279,Arsenides,2
Hg(IO3)2,mp-23407,True,False,2.6932,-0.8044650508333331,2.61,10.1016/j.physb.2013.10.034,Halides,2
In5S5Br,mp-510347,True,False,1.1148999999999991,-0.8211933268939371,1.55,10.1039/d0ta03841e,Halides,2
CsSmCdSe3,mp-510062,True,False,2.0217,-1.5899012977810711,2.46,10.1021/ic800370r,Chalcogenides,1
SrMoO4,mp-18834,True,False,3.8445,-2.664873142499999,3.415,10.1007/s10854-016-4489-2,Oxides,1
PSe,mp-28885,True,False,2.2667,-0.090475402269344,0.94,10.1039/c7py00241f,Chalcogenides,1
BaSnF4,mp-1103397,True,False,3.6599,-3.379662983333332,2.5,10.1007/s00339-013-7767-3,Halides,1
CaZrO3,mp-4571,True,False,3.8263,-3.670175069499999,3.3,10.1016/j.physb.2008.01.025,Oxides,1
Cs3Nb2AsSe11,mp-683903,True,False,0.9588,-1.058520920132163,1.35,10.1021/ic001157v,Arsenides,2
LiNbO2,mp-3924,True,False,1.579499999999999,-2.686382930833336,3.16,10.1038/srep20446,Oxides,1
WO3,mp-2383161,True,True,1.3585,-2.190860606562499,2.7,10.1016/j.cej.2010.12.007,Oxides,1
ReS2,mp-572758,True,False,1.3202,-0.901541504166666,1.47,10.1016/j.tsf.2019.06.007,Chalcogenides,1
Tl2Hg3S4,mp-1188364,True,False,1.579699999999999,-0.42452590824075,2.05,10.1021/ic200286t,Chalcogenides,1
CsMgH3,mp-571020,True,False,2.9535,-0.322898374681035,3.3,10.1016/j.physb.2008.10.060,Hydrides,1
RbInS2,mp-601861,True,False,2.4133,-1.192810585416665,3.05,10.1016/j.jallcom.2006.06.010,Chalcogenides,1
KSbO3,mp-547792,True,False,2.6808,-2.049127173449997,4.76,10.1007/s10973-013-3502-8,Antimonides,2
FeSO4F,mp-1103970,False,False,2.0446,-1.985501948214285,1.5,10.1039/c5ta03744a,Halides,3
CsPbF3,mp-20282,True,False,3.337399999999999,-2.784892366431033,2.55,10.1016/j.mseb.2020.114560,Halides,1
NaRhO2,mp-8830,True,False,1.377399999999999,-1.459174442844828,1.33,10.1038/srep04390,Oxides,1
Bi2O3,mp-23262,True,False,2.194499999999999,-1.641727215000003,2.8,10.1016/j.cej.2011.02.020,Oxides,1
Ba2BiSbO6,mp-23127,True,False,1.6958000000000002,-2.453007172999998,3.0,10.1039/c9tc06919d,Antimonides,2
PrBN2,mp-9028,True,False,2.1062,-1.537683774583333,4.0,10.1016/S1466-6049(01)00006-X,Nitrides,1
GeSe,mp-700,True,False,0.8988,-0.451703091171873,1.1565,10.1016/j.physb.2017.05.054,Chalcogenides,1
YBr3,mp-754815,True,True,3.976499999999999,-2.30537281125,2.5,10.1039/c7tc03003g,Halides,1
As2Se3,mp-909,True,False,1.4466,-0.139482853937499,1.76,10.1016/j.physb.2011.05.012,Arsenides,2
ScCl3,mp-23309,True,False,3.8723,-2.343001440624999,5.0,10.1039/c9nr08719b,Halides,1
ZnSiP2,mp-4763,True,False,1.3641,-0.391656841488096,2.1,10.1039/c5ee02884a,Silicides,2
Li2S,mp-1153,True,False,3.3862,-1.503132669722222,3.3595,10.1039/c2ee23355j,Chalcogenides,1
K3Nb2AsSe11,mp-542545,True,False,1.1802,-1.022161677648897,1.53,10.1021/ic001157v,Arsenides,2
In2Ge2O7,mp-5280,False,False,1.7955,-2.060192433484849,4.43,10.1039/c0cs00126k,Oxides,1
Tl4CdI6,mp-570339,False,False,2.1721,-0.841666844393942,2.815,10.1016/j.matchemphys.2015.08.014,Halides,1
KAg2PS4,mp-12532,True,False,1.2441,-0.721067763153272,3.02,10.1016/j.jssc.2016.04.007,Chalcogenides,1
SbN,mp-1423059,False,True,1.110999999999999,0.222929719999999,2.87,10.1039/c7nr09006d,Antimonides,2
BaAgSbS3,mp-1190401,True,False,1.422899999999999,-1.117579406527777,2.2,10.1021/acs.inorgchem.5b01566,Antimonides,2
Ca2Ta2O7,mp-680380,True,False,3.3532,-3.483381799774892,4.4,10.1007/s10853-016-0005-6,Oxides,1
ScN,mp-1009750,False,True,2.4152,-1.789021039999999,0.92,10.1016/j.physb.2009.12.009,Nitrides,1
La4InSbS9,mp-1196663,True,False,2.2196,-1.907849651361111,2.32,10.1039/C2JM33029F,Antimonides,2
BaTeMo2O9,mp-1203413,False,False,3.0136,-2.150919276858974,3.035,10.1021/ic2004358,Chalcogenides,2
K2Mo4O13,mp-637680,False,False,2.992,-2.059281836289473,1.9,10.1007/s11164-013-1397-4,Oxides,1
Bi2WO6,mp-23480,True,False,1.913999999999999,-1.956552777222222,2.75,10.1016/j.cej.2012.05.032,Oxides,1
SnWO4,mp-17700,False,False,0.9171,-2.020210412916667,1.9,10.1039/c2ra20401k,Oxides,1
Sr2PbO4,mp-20944,True,False,1.3966,-2.4660533835714302,1.75,10.1039/c5ta02349a,Oxides,1