formula,mpids,is_stable,theoretical,band_gap,formation_energy_per_atom,Value,DOI,compound_type,Category_count
CsErZnSe3,mp-7155,True,False,2.1566,-1.647716223614403,2.595,10.1021/ic800370r,Chalcogenides,1
NaNb3O8,mp-623854,True,False,2.4842,-2.9586486913649424,2.535,10.1021/acs.chemmater.7b02683,Oxides,1
Ag2CO3,mp-560717,False,False,0.7489999999999991,-1.06313207875,2.3,10.1016/j.cej.2019.123192,Oxides,1
PbCl2,mp-23291,True,False,3.7939,-1.308738062500002,3.91,10.1016/j.physb.2018.01.057,Halides,1
LiCdBO3,mp-6126,True,False,2.115599999999999,-2.30400035625,4.28,10.1016/j.jssc.2015.12.004,Oxides,1
NiSnO3,mp-754654,False,True,1.7717,-1.725544296999999,3.75,10.1016/j.optmat.2015.06.009,Oxides,1
Pr2Ti2O7,mp-15201,True,False,2.972899999999999,-3.714439192499989,2.7,10.1039/c5tc00242g,Oxides,1
H2WO4,mp-29530,False,False,1.4761,-1.754318643928571,2.63,10.1016/j.jece.2015.02.016,Oxides,2
TlSbS2,mp-28230,True,False,1.6594000000000002,-0.581591457083335,1.68,10.1007/s00339-012-7446-9,Antimonides,2
H2O2,mp-28015,False,False,4.4853,-0.8739656187499991,1.75,10.1016/j.jece.2020.104254,Oxides,2
Al2Te3,mp-29502,True,False,1.854,-0.559024813749999,2.5,10.1021/jacs.5b03986,Chalcogenides,1
PrAlO3,mp-3466,True,False,4.1325,-3.655848326333328,3.8,10.1039/c6ra08875a,Oxides,1
BaZn2(PO4)2,mp-6089,True,False,4.0373,-2.729195811098901,4.385,10.1007/s10971-016-4024-1,Oxides,1
Rb2Zn3(P2O7)2,mp-557089,True,False,4.1684,-2.535591127329192,4.39,10.1039/d0qi00689k,Oxides,2
MgWO4,mp-18875,True,False,3.6767,-2.562331308333333,3.39,10.1007/s10854-019-01960-3,Oxides,1
BAs,mp-10044,False,False,1.203699999999999,-0.041637114791665,1.39,10.1016/j.physb.2005.04.022,Arsenides,1
NaLa2TaO6,mp-13019,True,False,3.979199999999999,-3.504750970871265,4.5,10.1021/cm702303r,Oxides,1
CCl4,mp-1004532,True,False,4.5103,-0.642285480749999,3.78,10.1016/j.cej.2019.03.095,Halides,1
TeSe2,mp-1217269,True,True,0.6533000000000001,-0.010185599374999,2.392,10.1007/s40843-017-9076-5,Chalcogenides,1
LiMgP,mp-36111,True,True,1.7113,-0.75129741765873,2.43,10.1016/S0038-1098(98)00384-6,Phosphides,1
RbCaH3,mp-23949,False,False,3.2736,-0.47965106625,3.32,10.1016/j.jssc.2005.12.033,Hydrides,1
Na2Mn3O7,mp-19080,True,False,1.405699999999999,-1.937155033462644,1.24,10.1039/c7ta02609a,Oxides,1
Sm4InSbS9,mp-1196183,True,False,2.1754,-1.815866624194443,2.13,10.1021/acs.inorgchem.5b02846,Antimonides,2
MgSe,mp-1018040,True,False,2.5765,-1.474296713671875,4.1,10.1016/B978-0-444-81573-6.50078-5,Chalcogenides,1
BiOF,mp-23074,True,False,3.1303,-2.226778585833356,3.93,10.1016/j.jphotochem.2019.01.031,Halides,1
SiP,mp-2798,True,False,1.7395,-0.169962202321427,1.02,10.1039/c7cp06196j,Silicides,2
KTaO3,mp-3614,True,False,2.0995,-3.071587857916669,3.65,10.1016/j.physb.2012.09.011,Oxides,1
TlSbSe2,mp-567318,True,True,0.8323,-0.388810932031248,0.82,10.1007/s10854-016-4731-y,Antimonides,2
CdMoO4,mp-19039,True,False,2.4682,-1.814628006666668,3.2,10.1039/c5cp01598g,Oxides,1
CaSc2O4,mp-4056,True,False,3.457999999999999,-3.783688220714285,4.45,10.1039/c9qi00443b,Oxides,1
Cs2AgBiI6,mp-1113264,False,True,0.8526,-1.088725661097701,1.75,10.1039/c9dt01485c,Halides,1
Ba3Bi2TeO9,mp-556407,True,False,2.1188,-2.334691380444445,2.3,10.1007/s10789-005-0169-y,Chalcogenides,2
SrTi(PO4)2,mp-1191111,True,False,2.6126,-3.180023392301587,3.44,10.1039/b822336j,Oxides,1
K2PdSe10,mp-505138,False,True,1.0743,-0.393897858879807,1.48,10.1103/PhysRevB.71.085116,Chalcogenides,1
Nb3O7F,mp-760188,False,True,2.3814,-3.0749570636363632,3.1100000000000003,10.1039/c5ta02774h,Halides,2
BiI3,mp-22849,True,False,2.5349,-0.7663869175000011,1.8,10.1016/j.physb.2011.12.011,Halides,1
Na2TeS3,mp-1190141,True,False,1.7828,-0.9108006049042132,2.03,10.1021/acs.inorgchem.5b02227,Chalcogenides,1
NiS2,mp-1411545,False,True,0.527899999999999,-0.5559060250000001,0.5449999999999999,10.1016/j.matpr.2020.04.215,Chalcogenides,1
DyMnO3,mp-1188804,False,True,1.0173,-2.73365396741954,3.73,10.1007/s10948-017-4550-2,Oxides,1
BaTi4O9,mp-3175,False,False,2.7042,-3.5136086255952392,3.55,10.1007/s10562-008-9420-x,Oxides,1
La2MgTiO6,mp-6457,False,False,3.064,-3.683122239833333,4.66,10.1039/c7tc02661g,Oxides,1
CoTeMoO6,mp-551806,True,False,1.847299999999999,-1.670296165185186,2.125,10.1134/S0020168517070081,Chalcogenides,2
ZnSnO3,mp-13334,False,False,1.080999999999999,-1.939425192999999,3.05,10.1016/j.optmat.2017.05.056,Oxides,1
CsVO3,mp-504651,True,False,3.1105,-2.4174072654310352,2.14,10.1039/c8tc05110k,Oxides,1
ZnGeP2,mp-4524,True,False,1.1782,-0.275104891488094,2.06,10.1016/j.physb.2003.09.170,Phosphides,1
KBaSbSe3,mp-1190698,False,False,1.7736,-1.375387388213542,2.04,10.1021/cg5001446,Antimonides,2
SrCu2GeSe4,mp-16179,False,False,0.5996,-0.928521952421874,1.795,10.1021/acs.inorgchem.7b01318,Chalcogenides,1
B4C,mp-1238815,True,True,3.0415,-0.1003448895,1.795,10.1038/s41598-019-38556-0,Carbides,1
BaC2,mp-10293,False,False,2.1291,0.081697001666665,2.2,10.1016/j.intermet.2010.03.019,Carbides,1
Be2C,mp-1569,True,False,1.163699999999999,-0.231303785833333,2.0,10.1039/c6ra02141g,Carbides,1
C,mp-66,False,False,4.1145,0.1382973275,3.15,10.1016/j.jece.2020.104168,Carbides,1
GeC,mp-1002164,False,True,1.658099999999999,0.438373328749999,2.09,10.1016/j.rinp.2019.102306,Carbides,1
SnC,mp-1009820,False,True,0.6257,0.8178256637499991,2.1,10.1016/j.rinp.2017.08.049,Carbides,1
ZnC2,mp-1207473,False,True,2.707799999999999,1.1256620624999991,3.8,10.1039/c7tc05383e,Carbides,1