mpids,formula,bg_mp,bg_exp,num_elements,source
mp-560717,Ag2CO3,0.7489999999999991,2.3,3,BandgapDatabase1
mp-27966,Ag2Mo2O7,1.9011,2.685,3,BandgapDatabase1
mp-556225,Ag2S,1.0853,1.09,2,BandgapDatabase1
mp-1192057,Ag2S2O7,2.301599999999999,2.24,3,BandgapDatabase1
mp-5625,Ag2SO4,1.2289,3.8,3,BandgapDatabase1
mp-504466,Ag2WO4,2.0439,2.925,3,BandgapDatabase1
mp-561620,Ag3AsS3,1.627799999999999,2.0835,3,BandgapDatabase1
mp-505145,Ag3BiO3,1.546999999999999,2.04,3,BandgapDatabase1
mp-555269,Ag3SbS3,1.5142,2.1125,3,BandgapDatabase1
mp-15645,Ag8SnS6,0.535099999999999,1.315,3,BandgapDatabase1
mp-35909,AgBiI4,1.0457,1.77,3,BandgapDatabase1
mp-556094,AgBiSCl2,1.0752,1.0,4,BandgapDatabase1
mp-580941,AgI,1.3759,2.775,2,BandgapDatabase1
mp-27384,AgIO3,2.4375,3.26,3,BandgapDatabase1
mp-2247,AgN3,1.5714,3.67,2,BandgapDatabase1
mp-552185,AgNO3,1.853899999999999,1.86,3,BandgapDatabase1
mp-3922,AgSbS2,1.3716,1.45,3,BandgapDatabase1
mp-29502,Al2Te3,1.854,2.5,2,BandgapDatabase1
mp-1214816,Al4SiC4,1.200899999999999,1.05,3,BandgapDatabase1
mp-1178577,AlFeO3,2.1792,2.44,3,BandgapDatabase1
mp-1550,AlP,1.6294,2.48,2,BandgapDatabase1
mp-2624,AlSb,1.2255,1.62,2,BandgapDatabase1
mp-1189572,As2S3,1.9873,2.3,2,BandgapDatabase1
mp-947,Au2S,1.9091,1.8,2,BandgapDatabase1
mp-1199451,B2S3,2.5061,3.75,2,BandgapDatabase1
mp-1346,B6O,1.856399999999999,2.0,2,BandgapDatabase1
mp-629458,BC2N,1.661900000000001,1.7000000000000002,3,BandgapDatabase1
mp-23127,Ba2BiSbO6,1.6958000000000002,3.0,4,BandgapDatabase1
mp-1205803,Ba2ErTaO6,3.393399999999999,2.5,4,BandgapDatabase1
mp-1202506,Ba2FeBiS5,0.625,1.22,4,BandgapDatabase1
mp-1199946,Ba2FeSbS5,0.5309,0.93,4,BandgapDatabase1
mp-20546,Ba2In2O5,0.919,2.94,3,BandgapDatabase1
mp-1214937,Ba2LaV3O11,3.5103,3.35,4,BandgapDatabase1
mp-6270,Ba2LiReO6,1.8198,2.42,4,BandgapDatabase1
mp-6798,Ba2NaReO6,1.8688,2.45,4,BandgapDatabase1
mp-17612,Ba2SiO4,4.6319,4.2605,3,BandgapDatabase1
mp-19474,Ba2V2O7,3.4599,3.22,3,BandgapDatabase1
mp-1096782,Ba2VFeO6,1.0389,1.0,4,BandgapDatabase1
mp-12385,Ba2YTaO6,3.463899999999999,3.5,4,BandgapDatabase1
mp-1192376,Ba3AlAs3,0.6837999999999991,0.57,3,BandgapDatabase1
mp-1195592,Ba3GaAs3,0.6858000000000001,0.78,3,BandgapDatabase1
mp-1228150,Ba3LaNb3O12,2.6586,4.1,4,BandgapDatabase1
mp-7765,Ba3SiO5,3.242199999999999,3.04,3,BandgapDatabase1
mp-3563,Ba5Nb4O15,2.5999,3.81,3,BandgapDatabase1
mp-504554,Ba5Ta4O15,3.0865,4.0,3,BandgapDatabase1
mp-1228557,Ba8Ti3Nb4O24,1.9693,3.4,4,BandgapDatabase1
mp-8258,BaAl4S7,3.1571,3.9,3,BandgapDatabase1
mp-559186,BaBiBO4,3.5528,3.53,4,BandgapDatabase1
mp-10293,BaC2,2.1291,2.2,2,BandgapDatabase1
mp-5504,BaCO3,4.397399999999999,4.61,3,BandgapDatabase1
mp-18571,BaCrO4,2.9695,2.63,3,BandgapDatabase1
mp-1080650,BaCuSF,1.6223,2.7,4,BandgapDatabase1
mp-9195,BaCuSeF,1.4265,2.9,4,BandgapDatabase1
mp-554293,BaFe12O19,1.2425,2.0,3,BandgapDatabase1
mp-1048391,BaFe4O7,1.7176,2.18,3,BandgapDatabase1
mp-1227970,BaGa2GeSe6,1.9186,2.81,4,BandgapDatabase1
mp-998552,BaHfO3,3.5394,3.0,3,BandgapDatabase1
mp-1228245,BaLa4Ti4O15,2.8881,3.9,4,BandgapDatabase1
mp-556850,BaMnF4,2.3195,1.0,3,BandgapDatabase1
mp-19276,BaMoO4,3.7927,3.35,3,BandgapDatabase1
mp-1205352,BaPd(SeO3)2,1.6510999999999991,1.735,4,BandgapDatabase1
mp-3307,BaSO4,4.5086,3.2725,3,BandgapDatabase1
mp-1103397,BaSnF4,3.6599,2.5,3,BandgapDatabase1
mp-561103,BaTa2O6,2.1161,3.8,3,BandgapDatabase1
mp-1189614,BaThO3,4.047,3.0,3,BandgapDatabase1
mp-8291,BaTiF6,4.3236,3.03,3,BandgapDatabase1
mp-5777,BaTiO3,2.293,3.2,3,BandgapDatabase1
mp-6089,BaZn2(PO4)2,4.0373,4.385,4,BandgapDatabase1
mp-4236,BaZnO2,2.2724,2.2,3,BandgapDatabase1
mp-1019544,BaZrO3,3.1163,4.8,3,BandgapDatabase1
mp-540771,BaZrS3,0.99,1.83,3,BandgapDatabase1
mp-1569,Be2C,1.163699999999999,2.0,2,BandgapDatabase1
mp-691119,Bi14MoO24,2.6318,2.91,3,BandgapDatabase1
mp-23064,Bi2MoO6,2.129299999999999,2.66,3,BandgapDatabase1
mp-1201497,Bi2Pd(SeO3)4,1.7711,1.73,4,BandgapDatabase1
mp-1227335,Bi2Te2S,0.7519,0.92,3,BandgapDatabase1
mp-31406,Bi2TeSe2,0.9267,0.62,3,BandgapDatabase1
mp-23480,Bi2WO6,1.913999999999999,2.75,3,BandgapDatabase1
mp-1204598,Bi6Mo2O15,2.6683,3.1,3,BandgapDatabase1
mp-23237,BiF3,4.6808,3.94,2,BandgapDatabase1
mp-1191266,BiIO4,2.3939999999999992,3.0700000000000003,3,BandgapDatabase1
mp-23074,BiOF,3.1303,3.93,3,BandgapDatabase1
mp-23018,BiSbO4,2.4246,2.85,3,BandgapDatabase1
mp-1227508,BiSbSe3,1.0106,1.1,3,BandgapDatabase1
mp-33723,BiTeBr,1.2364,0.6,3,BandgapDatabase1
mp-22965,BiTeI,1.2325,0.5449999999999999,3,BandgapDatabase1
mp-1066781,BrCl,1.783,2.94,2,BandgapDatabase1
mp-66,C,4.1145,3.15,1,BandgapDatabase1
mp-2718,C2N,3.118999999999999,1.82,2,BandgapDatabase1
mp-971684,C3N4,1.181499999999999,2.7,2,BandgapDatabase1
mp-1214217,CCl2,3.9193,1.615,2,BandgapDatabase1
mp-1004532,CCl4,4.5103,3.78,2,BandgapDatabase1
mp-559432,CF2,4.9033,2.4,2,BandgapDatabase1
mp-995198,CO2,4.2235,2.2,2,BandgapDatabase1
mp-2232,CS2,3.4316,2.29,2,BandgapDatabase1
mp-28240,CSO,4.9077,3.35,3,BandgapDatabase1
mp-18783,Ca2FeMoO6,1.1193,2.42,4,BandgapDatabase1
mp-13979,Ca2Nb2O7,3.011,2.14,3,BandgapDatabase1
mp-19114,Ca2NiWO6,2.933,2.32,4,BandgapDatabase1
mp-8818,Ca2ZnN2,0.7618,1.7,3,BandgapDatabase1
mp-560163,Ca4Si2O7F2,4.8233,4.8,4,BandgapDatabase1
mp-1246515,Ca6Te3N2,1.843299999999999,2.5,3,BandgapDatabase1
mp-1120739,CaCl2,4.8803,3.2,2,BandgapDatabase1
mp-17761,CaGeO3,3.481299999999999,2.03,3,BandgapDatabase1
mp-22766,CaIn2O4,2.020799999999999,3.785,3,BandgapDatabase1
mp-18844,CaMn2O4,2.0103,1.67,3,BandgapDatabase1
mp-19330,CaMoO4,3.5007,3.1,3,BandgapDatabase1
mp-17101,CaNb2O6,3.6052,3.94,3,BandgapDatabase1
mp-634859,CaO2,2.7345,3.08,2,BandgapDatabase1
mp-4056,CaSc2O4,3.457999999999999,4.45,3,BandgapDatabase1
mp-1195298,CaSiP2,1.024999999999999,0.97,3,BandgapDatabase1
mp-1519,CaTe,1.5535,4.0,2,BandgapDatabase1
mp-1403610,CaTi2O5,2.9078,3.095,3,BandgapDatabase1
mp-27624,CaV2O6,2.8812,2.56,3,BandgapDatabase1
mp-556440,CaZr4(PO4)6,4.172099999999999,4.3,4,BandgapDatabase1
mp-7781,CaZrS3,1.1878,1.9,3,BandgapDatabase1
mp-680761,Cd3(PO4)2,2.5482,4.95,3,BandgapDatabase1
mp-1203526,Cd4As2Br3,0.9704,1.825,3,BandgapDatabase1
mp-18179,Cd4SiS6,1.4382,2.5,3,BandgapDatabase1
mp-22881,CdCl2,3.5244,2.31,2,BandgapDatabase1
mp-19039,CdMoO4,2.4682,3.2,3,BandgapDatabase1
mp-2310,CdO2,1.2535,3.6,2,BandgapDatabase1
mp-913,CdP2,1.4556,0.81,2,BandgapDatabase1
mp-672,CdS,1.125,2.4,2,BandgapDatabase1
mp-8459,CdSO4,2.8625,2.34,3,BandgapDatabase1
mp-406,CdTe,0.5846,1.5,2,BandgapDatabase1
mp-555560,CdTeMoO6,3.189399999999999,3.25,4,BandgapDatabase1
mp-28290,CdTeO3,3.019,3.3,3,BandgapDatabase1
mp-1182128,CeVO4,0.734,1.8,3,BandgapDatabase1
mp-22408,CoO,0.5880000000000001,2.45,2,BandgapDatabase1
mp-849770,CoPO4,1.0727,1.1,3,BandgapDatabase1
mp-752613,CoSnO3,0.9832,2.93,3,BandgapDatabase1
mp-1198962,CoTe6O13,2.716,3.3,3,BandgapDatabase1
mp-551806,CoTeMoO6,1.847299999999999,2.125,4,BandgapDatabase1
mp-567504,CrCl3,1.5182,1.09,2,BandgapDatabase1
mp-560338,CrF3,3.0453,1.53,2,BandgapDatabase1
mp-1213805,CrI3,1.159,1.05,2,BandgapDatabase1
mp-1113264,Cs2AgBiI6,0.8526,1.75,4,BandgapDatabase1
mp-1112943,Cs2AgSbBr6,1.1916,1.64,4,BandgapDatabase1
mp-1112940,Cs2AgSbCl6,1.662399999999999,2.54,4,BandgapDatabase1
mp-616458,Cs2CO3,3.3306,1.8,3,BandgapDatabase1
mp-560216,Cs2GeP4O13,4.236700000000001,3.888,4,BandgapDatabase1
mp-1203522,Cs2HgCl4,3.0746,3.59,3,BandgapDatabase1
mp-28421,Cs2HgI4,2.0411,2.34,3,BandgapDatabase1
mp-1096926,Cs2InAgCl6,1.3421,3.3,4,BandgapDatabase1
mp-1112889,Cs2InBiCl6,1.7611999999999992,0.99,4,BandgapDatabase1
mp-1112887,Cs2InSbCl6,1.3727,1.0,4,BandgapDatabase1
mp-1195571,Cs2Mg2(WO4)3,4.659,4.53,4,BandgapDatabase1
mp-1112659,Cs2NaBiI6,2.107399999999999,1.66,4,BandgapDatabase1
mp-7988,Cs2O,0.583199999999999,2.74,2,BandgapDatabase1
mp-2647124,Cs2PbBr6,0.5108,1.6,3,BandgapDatabase1
mp-1205847,Cs2PdBr6,0.756,1.6,3,BandgapDatabase1
mp-29806,Cs2PdI6,0.6286,1.4,3,BandgapDatabase1
mp-13548,Cs2Pt,1.6743,1.5,2,BandgapDatabase1
mp-540703,Cs2S,2.0952,4.035,2,BandgapDatabase1
mp-1206662,Cs2TiI6,0.8643000000000001,1.04,3,BandgapDatabase1
mp-1112501,Cs2TlBiI6,1.3773,1.37,4,BandgapDatabase1
mp-1198053,Cs3Ag2Sb3S8,1.131599999999999,2.5,4,BandgapDatabase1
mp-505212,Cs3AuO,1.3261,2.35,3,BandgapDatabase1
mp-1104268,Cs3Bi2Cl9,3.229899999999999,2.215,3,BandgapDatabase1
mp-1112980,Cs3BiBr6,3.4221,3.05,3,BandgapDatabase1
mp-23436,Cs4PbBr6,3.682699999999999,3.95,3,BandgapDatabase1
mp-1238804,Cs4PbI6,3.4095,3.44,3,BandgapDatabase1
mp-1194731,CsBa2SnS4Cl,2.553699999999999,2.06,5,BandgapDatabase1
mp-1192526,CsBaPS4,2.3742,3.4,4,BandgapDatabase1
mp-1192754,CsBaVS4,1.281,2.3,4,BandgapDatabase1
mp-10347,CsCa2Ta3O10,2.1798,3.8,4,BandgapDatabase1
mp-644203,CsCaH3,3.1408,3.17,3,BandgapDatabase1
mp-1195350,CsCdInTe3,1.2066,1.81,4,BandgapDatabase1
mp-23032,CsCuCl3,0.5494,2.6,3,BandgapDatabase1
mp-5038,CsGaS2,3.0626,3.305,3,BandgapDatabase1
mp-22988,CsGeCl3,2.153499999999999,1.835,3,BandgapDatabase1
mp-1225936,CsHgSbSe3,1.0746,1.89,4,BandgapDatabase1
mp-614603,CsI,3.8556,4.595000000000001,2,BandgapDatabase1
mp-12491,CsLaCdTe3,1.730099999999999,1.55,4,BandgapDatabase1
mp-571020,CsMgH3,2.9535,3.3,3,BandgapDatabase1
mp-29751,CsMgI3,3.1519999999999992,1.7,3,BandgapDatabase1
mp-1195822,CsNb2PSe10,0.8597999999999991,1.15,4,BandgapDatabase1
mp-22950,CsNiCl3,0.8049000000000001,4.8,3,BandgapDatabase1
mp-1238811,CsPb2Br5,3.0958,3.1,3,BandgapDatabase1
mp-567681,CsPbBr3,2.8808,2.3,3,BandgapDatabase1
mp-1539667,CsPbCl3,2.7365,2.975,3,BandgapDatabase1
mp-20282,CsPbF3,3.337399999999999,2.55,3,BandgapDatabase1
mp-2646981,CsPbI2Br,1.4384,1.91,4,BandgapDatabase1
mp-540839,CsPbI3,2.5181,1.73,3,BandgapDatabase1
mp-505709,CsSmZnSe3,2.042399999999999,2.53,4,BandgapDatabase1
mp-1247749,CsSnBr3,0.9682,1.75,3,BandgapDatabase1
mp-27381,CsSnI3,2.0632,1.3,3,BandgapDatabase1
mp-1225854,CsTaWO6,3.1466,3.525,4,BandgapDatabase1
mp-8361,CsTe,1.0019,3.94,2,BandgapDatabase1
mp-1112176,CsTlCl3,1.2584,2.5,3,BandgapDatabase1
mp-1225993,Cu2S,1.2158,1.21,2,BandgapDatabase1
mp-557373,Cu2WS4,1.5621,1.74,3,BandgapDatabase1
mp-607291,Cu3BiS3,0.7058,1.42,3,BandgapDatabase1
mp-559551,Cu4Bi4S9,0.972299999999999,0.915,3,BandgapDatabase1
mp-1096940,CuBO2,1.461399999999999,3.4,3,BandgapDatabase1
mp-983565,CuBSe2,1.487,2.315,3,BandgapDatabase1
mp-22917,CuBr,0.9962,1.9835,2,BandgapDatabase1
mp-1225654,CuCl,0.5569000000000001,3.306,2,BandgapDatabase1
mp-570081,CuI,1.6471,3.0,2,BandgapDatabase1
mp-927,CuP2,0.8679000000000001,1.455,2,BandgapDatabase1
mp-1078469,CuPN2,1.822299999999998,1.67,3,BandgapDatabase1
mp-752425,Dy2Ti2O7,3.0572,3.1,3,BandgapDatabase1
mp-19381,DyCrO3,2.4922,2.8,3,BandgapDatabase1
mp-18601,DyMn2O5,1.0799,1.61,3,BandgapDatabase1
mp-1188804,DyMnO3,1.0173,3.73,3,BandgapDatabase1
mp-18784,DyVO4,2.9764,2.215,3,BandgapDatabase1
mp-19319,ErMnO3,1.0455,1.6,3,BandgapDatabase1
mp-1271821,Fe3O4,1.0229,1.82,2,BandgapDatabase1
mp-19097,FeBO3,1.481599999999999,2.35,3,BandgapDatabase1
mp-676241,FeCl3,0.6636000000000001,0.685,2,BandgapDatabase1
mp-22398,FeF3,3.1061,4.01,2,BandgapDatabase1
mp-505526,FeMoO4,2.037,2.725,3,BandgapDatabase1
mp-758560,FeOF,1.1941,1.23,3,BandgapDatabase1
mp-570553,FeP4,0.8049000000000001,0.88,2,BandgapDatabase1
mp-753395,FePO4,1.3564,2.445,3,BandgapDatabase1
mp-2931287,FePS3,0.5063999999999991,3.14,3,BandgapDatabase1
mp-1522,FeS2,0.8770000000000001,0.95,2,BandgapDatabase1
mp-19254,FeSO4,2.7173,1.03,3,BandgapDatabase1
mp-1103970,FeSO4F,2.0446,1.5,4,BandgapDatabase1
mp-27904,FeSbS,0.547,0.8,3,BandgapDatabase1
mp-1714,FeSi2,0.6966000000000001,0.88,2,BandgapDatabase1
mp-886,Ga2O3,2.007799999999999,4.8,2,BandgapDatabase1
mp-1340,Ga2Se3,1.043599999999999,2.29,2,BandgapDatabase1
mp-38970,Ga2Te3,0.6375000000000001,1.65,2,BandgapDatabase1
mp-804,GaN,1.726499999999999,3.4,2,BandgapDatabase1
mp-568263,GaSe,1.2121,2.0,2,BandgapDatabase1
mp-27449,GaTeCl,2.1702,2.96,3,BandgapDatabase1
mp-778228,Gd2(WO4)3,3.8025,3.3,3,BandgapDatabase1
mp-686465,Gd2Ti2O7,2.408899999999999,3.2,3,BandgapDatabase1
mp-757233,Gd2Zr2O7,2.8082000000000003,2.68,3,BandgapDatabase1
mp-18331,GdCrO3,2.6309,3.2,3,BandgapDatabase1
mp-4875,GdTaO4,3.3217,0.8,3,BandgapDatabase1
mp-22024,GdVO4,2.9685,3.1,3,BandgapDatabase1
mp-1198022,Ge,1.1428,0.7,1,BandgapDatabase1
mp-672289,Ge3N4,2.064,2.595,2,BandgapDatabase1
mp-1078667,GeH4,1.142199999999999,1.51,2,BandgapDatabase1
mp-2242,GeS,1.237599999999999,1.69,2,BandgapDatabase1
mp-572892,GeS2,2.2646,3.71,2,BandgapDatabase1
mp-540625,GeSe2,1.7063,2.03,2,BandgapDatabase1
mp-684704,H2O,4.7589,1.6,2,BandgapDatabase1
mp-28015,H2O2,4.4853,1.75,2,BandgapDatabase1
mp-696805,H2S,4.3246,0.5037,2,BandgapDatabase1
mp-29530,H2WO4,1.4761,2.63,3,BandgapDatabase1
mp-510458,HCN,3.616,0.68,3,BandgapDatabase1
mp-1190216,HCNO,4.6665,3.68,4,BandgapDatabase1
mp-995234,HCO,4.3277,3.26,3,BandgapDatabase1
mp-634101,HCl,2.584699999999999,2.565,2,BandgapDatabase1
mp-1224772,HNO3,3.8657,3.75,3,BandgapDatabase1
mp-776470,Hf3N4,1.2648,0.815,2,BandgapDatabase1
mp-1102429,HfN2,1.188099999999999,1.335,2,BandgapDatabase1
mp-9922,HfS3,1.1326,2.2,2,BandgapDatabase1
mp-23407,Hg(IO3)2,2.6932,2.61,3,BandgapDatabase1
mp-812,Ho2O3,3.9457999999999993,2.84,2,BandgapDatabase1
mp-23153,I,0.9846,1.6,1,BandgapDatabase1
mp-5280,In2Ge2O7,1.7955,4.43,3,BandgapDatabase1
mp-612740,In2Se3,0.9903,1.3250000000000002,2,BandgapDatabase1
mp-510347,In5S5Br,1.1148999999999991,1.55,3,BandgapDatabase1
mp-669311,In7Te10,0.8223,1.75,2,BandgapDatabase1
mp-1223642,InGaP2,0.5607000000000001,1.84,3,BandgapDatabase1
mp-966800,InP,0.527999999999999,1.35,2,BandgapDatabase1
mp-1212067,InSbO4,0.9405999999999992,4.05,3,BandgapDatabase1
mp-22691,InSe,0.6375000000000001,1.39,2,BandgapDatabase1
mp-29234,InTeI,1.7076,2.735,3,BandgapDatabase1
mp-1224229,K10Zn4Sn4S17,2.1377,3.1500000000000004,4,BandgapDatabase1
mp-570887,K2Ag2SnSe4,0.8472000000000001,1.8,4,BandgapDatabase1
mp-1104293,K2AgF4,0.6126,1.8,3,BandgapDatabase1
mp-28800,K2Bi8Se13,0.8361000000000001,0.53,3,BandgapDatabase1
mp-3963,K2CO3,3.649,4.9,3,BandgapDatabase1
mp-27742,K2CdO2,1.3562,3.36,3,BandgapDatabase1
mp-23956,K2MgH4,3.4385,3.46,3,BandgapDatabase1
mp-637680,K2Mo4O13,2.992,1.9,3,BandgapDatabase1
mp-8624,K2Sn2O3,1.3022,2.75,3,BandgapDatabase1
mp-1024073,K2Sn3O7,1.5671,3.325,3,BandgapDatabase1
mp-574040,K2SnBr6,1.6124,1.4049999999999998,3,BandgapDatabase1
mp-1195471,K2Ta4O11,3.3655,4.15,3,BandgapDatabase1
mp-1194282,K2Ti4O9,3.0211,3.4,3,BandgapDatabase1
mp-8065,K2Ti6O13,2.7535,3.45,3,BandgapDatabase1
mp-18449,K2ZrO3,3.6617,4.18,3,BandgapDatabase1
mp-559489,K2ZrSi2O7,4.524699999999999,4.95,4,BandgapDatabase1
mp-557543,K3LuSi2O7,3.6132,5.0,4,BandgapDatabase1
mp-1194610,K4Mg(WO4)3,4.6083,4.405,4,BandgapDatabase1
mp-15148,K4Nb2S11,1.4656,1.96,3,BandgapDatabase1
mp-560692,K4Nb6O17,2.6581,3.2,3,BandgapDatabase1
mp-18664,K4Ta2S11,1.7377999999999991,2.385,3,BandgapDatabase1
mp-6812,KBaPO4,4.950299999999999,4.35,4,BandgapDatabase1
mp-1223463,KCNO,4.689599999999999,3.26,4,BandgapDatabase1
mp-557195,KCa2Nb3O10,2.1761,3.44,4,BandgapDatabase1
mp-2423265,KCoO2,1.3214,1.0,3,BandgapDatabase1
mp-1192531,KCu2SbS3,0.9539,1.53,4,BandgapDatabase1
mp-1211763,KGdTiO4,2.1484,3.04,4,BandgapDatabase1
mp-568379,KInSnSe4,1.7413,1.8,4,BandgapDatabase1
mp-540962,KLa(PO3)4,4.8558,4.905,4,BandgapDatabase1
mp-1191101,KMgBO3,4.6163,3.742,4,BandgapDatabase1
mp-23737,KMgH3,2.458,2.59,3,BandgapDatabase1
mp-1205353,KMnF3,2.4058,3.04,3,BandgapDatabase1
mp-19046,KMnO4,2.081099999999999,1.04,3,BandgapDatabase1
mp-8755,KNaTe,1.9491,2.12,3,BandgapDatabase1
mp-1195772,KNb2PSe10,0.817299999999999,1.15,4,BandgapDatabase1
mp-27998,KNb3O8,2.4752,4.1,3,BandgapDatabase1
mp-607267,KPb2Cl5,3.6551,4.0,3,BandgapDatabase1
mp-15559,KSb5S8,1.591599999999999,1.745,3,BandgapDatabase1
mp-547792,KSbO3,2.6808,4.76,3,BandgapDatabase1
mp-5878,KZnF3,3.6954,4.3805,3,BandgapDatabase1
mp-638261,La2GeO5,4.021000000000001,4.873,3,BandgapDatabase1
mp-6457,La2MgTiO6,3.064,4.66,4,BandgapDatabase1
mp-1223253,La2MnNiO6,1.580499999999999,1.133,4,BandgapDatabase1
mp-1105399,La2MoO5,0.5206000000000001,0.55,3,BandgapDatabase1
mp-560340,La2Pd2O5,1.179,1.342,3,BandgapDatabase1
mp-32798,La2Se3,1.58,1.97,2,BandgapDatabase1
mp-4547,La2TeO2,2.028699999999999,2.5,3,BandgapDatabase1
mp-555253,La5Ti2AgS5O7,1.5072,2.05,5,BandgapDatabase1
mp-559474,La5Ti2CuS5O7,1.2107,1.9,5,BandgapDatabase1
mp-1080060,LaAlO3,3.7121,5.0,3,BandgapDatabase1
mp-8216,LaBO3,4.500700000000001,1.67,3,BandgapDatabase1
mp-1211317,LaBWO6,3.8287,4.1,4,BandgapDatabase1
mp-28572,LaBr2,0.5885,1.0,2,BandgapDatabase1
mp-23263,LaBr3,2.9266,3.75,2,BandgapDatabase1
mp-1288145,LaCoO3,0.9497,2.1,3,BandgapDatabase1
mp-19281,LaCrO3,2.3706,1.33,3,BandgapDatabase1
mp-1078634,LaFeO3,1.950899999999999,2.1,3,BandgapDatabase1
mp-1212633,LaGaGe2O7,3.1959,3.3,4,BandgapDatabase1
mp-697905,LaMg2NiH7,0.9506,0.821,4,BandgapDatabase1
mp-1180700,LaMnO3,1.1014,1.7,3,BandgapDatabase1
mp-567290,LaN,1.1169,0.6,2,BandgapDatabase1
mp-14485,LaTa7O19,3.1119,4.14,3,BandgapDatabase1
mp-19162,LaVO4,2.8563,2.69,3,BandgapDatabase1
mp-989524,LaWN3,1.2096,1.5405,3,BandgapDatabase1
mp-1200447,LaYS3,0.7897999999999991,1.9,3,BandgapDatabase1
mp-7611,Li2CaGeO4,4.1135,2.4,4,BandgapDatabase1
mp-1193501,Li2Fe(SO4)2,4.2848,5.0,4,BandgapDatabase1
mp-18968,Li2FeSiO4,3.123599999999999,3.15,4,BandgapDatabase1
mp-2724101,Li2HfO3,4.0573,0.5,3,BandgapDatabase1
mp-18988,Li2MnO3,1.368399999999999,1.89,3,BandgapDatabase1
mp-559240,Li2MnSiO4,2.176599999999999,3.0,4,BandgapDatabase1
mp-1153,Li2S,3.3862,3.3595,2,BandgapDatabase1
mp-1190364,Li2SnS3,1.419099999999999,2.14,3,BandgapDatabase1
mp-1095291,Li2SnSe3,1.479699999999999,1.95,3,BandgapDatabase1
mp-2931,Li2TiO3,3.0338,3.3,3,BandgapDatabase1
mp-27130,Li2W2O7,3.7425,4.35,3,BandgapDatabase1
mp-4156,Li2ZrO3,3.7336,4.74,3,BandgapDatabase1
mp-13944,Li3AlN2,3.162099999999999,4.4,3,BandgapDatabase1
mp-684504,Li3Bi2(PO4)3,4.0294,3.5,4,BandgapDatabase1
mp-2251,Li3N,0.984,1.115,2,BandgapDatabase1
mp-31488,Li3NbO4,3.8385,4.0,3,BandgapDatabase1
mp-6565,Li3Sc2(PO4)3,4.7568,4.681,4,BandgapDatabase1
mp-6396,Li3V2(PO4)3,1.8718999999999992,2.725,4,BandgapDatabase1
mp-19219,Li3VO4,4.0337,3.9,3,BandgapDatabase1
mp-9172,Li4TiO4,4.5573,4.64,3,BandgapDatabase1
mp-19511,Li5FeO4,3.0845,4.0,3,BandgapDatabase1
mp-686208,Li5SiN3,2.159999999999999,2.51,3,BandgapDatabase1
mp-985591,Li6PS5Br,2.1394,2.12,4,BandgapDatabase1
mp-985592,Li6PS5Cl,2.2955,3.1,4,BandgapDatabase1
mp-27767,Li6Si2O7,4.995699999999999,4.94,3,BandgapDatabase1
mp-1222860,Li7Mn(BO3)3,3.5681000000000003,5.0,4,BandgapDatabase1
mp-641703,Li7P3S11,2.4883,3.065,3,BandgapDatabase1
mp-4604,Li7VN4,3.035199999999999,1.4,3,BandgapDatabase1
mp-28549,Li8SiO6,4.4509,4.745,3,BandgapDatabase1
mp-755225,Li8ZrO6,4.7984,4.74,3,BandgapDatabase1
mp-27653,LiAlH4,4.7457,4.67,3,BandgapDatabase1
mp-1095289,LiCaAs,1.073299999999999,1.57,3,BandgapDatabase1
mp-569501,LiCaBi,0.5790000000000001,0.6,3,BandgapDatabase1
mp-16264,LiCaSb,0.6443000000000001,0.89,3,BandgapDatabase1
mp-22526,LiCoO2,0.6623,2.7,3,BandgapDatabase1
mp-758022,LiCoPO4,3.2415,3.4,4,BandgapDatabase1
mp-1407369,LiCuS,1.5952000000000002,2.0,3,BandgapDatabase1
mp-21735,LiFe5O8,1.3685,1.765,3,BandgapDatabase1
mp-777049,LiFeBO3,3.1615,3.4,4,BandgapDatabase1
mp-19017,LiFePO4,3.922399999999999,3.75,4,BandgapDatabase1
mp-943492,LiFeSO4F,1.3691,2.83,5,BandgapDatabase1
mp-758562,LiFeSiO4,2.9822,2.9,4,BandgapDatabase1
mp-3647,LiGaS2,2.9608,3.635,3,BandgapDatabase1
mp-11582,LiGaSe2,2.0656,3.34,3,BandgapDatabase1
mp-23384,LiIO3,3.7886,4.1850000000000005,3,BandgapDatabase1
mp-8491,LiInP2O7,3.9726,4.6,4,BandgapDatabase1
mp-36111,LiMgP,1.7113,2.43,3,BandgapDatabase1
mp-1207082,LiMgSb,1.4438,1.875,3,BandgapDatabase1
mp-1176656,LiMn2O4,1.052299999999999,1.43,3,BandgapDatabase1
mp-19131,LiMnBO3,2.563599999999999,3.05,4,BandgapDatabase1
mp-18997,LiMnPO4,3.411499999999999,2.0,4,BandgapDatabase1
mp-2659,LiN3,3.6364,3.4,2,BandgapDatabase1
mp-3368,LiNb3O8,3.017,3.9,3,BandgapDatabase1
mp-3924,LiNbO2,1.579499999999999,3.16,3,BandgapDatabase1
mp-570363,LiSi,1.3839,0.755,2,BandgapDatabase1
mp-755231,LiTeO3,2.1534,2.0,3,BandgapDatabase1
mp-1222368,LiVMoO6,2.7403,2.505,4,BandgapDatabase1
mp-25423,LiVPO4F,1.6248,1.75,5,BandgapDatabase1