mpids,formula,bg_mp,bg_exp,num_elements,source
mp-11674,Al2Se3,1.8004,3.1,2,BandgapDatabase1
mp-28395,B6P,2.4757,3.3,2,BandgapDatabase1
mp-6325,Ba3MgTa2O9,3.2733,4.28,4,BandgapDatabase1
mp-13287,BaCuTeF,0.9884,2.65,4,BandgapDatabase1
mp-28007,BaHgS2,1.1569,1.93,3,BandgapDatabase1
mp-1342,BaO,2.0906,3.56,2,BandgapDatabase1
mp-1500,BaS,2.1488,3.67,2,BandgapDatabase1
mp-1477,BaSi2,0.7812999999999991,1.3,2,BandgapDatabase1
mp-23020,BiSeI,1.5764,1.425,3,BandgapDatabase1
mp-866503,Ca2SnS4,2.2605,2.52,3,BandgapDatabase1
mp-5795,CaMg2N2,1.9968999999999992,3.25,3,BandgapDatabase1
mp-4438,CaSnO3,2.3301,4.3,3,BandgapDatabase1
mp-567556,CdSb2Se3Br2,1.1429,1.4,4,BandgapDatabase1
mp-20194,CeO2,1.8647,3.13,2,BandgapDatabase1
mp-1078250,Cs2AgBiBr6,1.3547,1.95,4,BandgapDatabase1
mp-1078258,Cs2AgBiCl6,1.8663,2.44,4,BandgapDatabase1
mp-567386,Cs2Cd3Te4,1.558699999999999,2.48,3,BandgapDatabase1
mp-540574,Cs2Hg3I8,1.731399999999999,2.56,3,BandgapDatabase1
mp-23405,Cs2TeBr6,2.1121,2.12,3,BandgapDatabase1
mp-540957,Cs2TeI6,1.3877000000000002,1.47,3,BandgapDatabase1
mp-27544,Cs3Bi2Br9,2.599599999999999,2.67,3,BandgapDatabase1
mp-579560,Cs3Sb2Br9,1.9837,2.36,3,BandgapDatabase1
mp-23029,Cs3Sb2I9,1.8829999999999991,2.0,3,BandgapDatabase1
mp-2667,CsAu,1.023299999999999,2.6,2,BandgapDatabase1
mp-28377,CsGeI3,0.9905,1.6,3,BandgapDatabase1
mp-11123,CsYHgSe3,1.3946,2.54,4,BandgapDatabase1
mp-361,Cu2O,0.512699999999999,2.1,2,BandgapDatabase1
mp-12954,CuBS2,1.742499999999999,3.61,3,BandgapDatabase1
mp-539,Ga2S3,1.7106,2.99,2,BandgapDatabase1
mp-22216,In2S3,0.8856,2.12,2,BandgapDatabase1
mp-559521,InBi2S4Cl,1.5805,1.5,4,BandgapDatabase1
mp-571169,InBi2Se4Br,1.2945,1.21,4,BandgapDatabase1
mp-20790,InPS4,2.3185,3.12,3,BandgapDatabase1
mp-559864,InSb2S4Br,1.5308000000000002,1.8,4,BandgapDatabase1
mp-556541,InSb2S4Cl,1.552499999999998,1.8,4,BandgapDatabase1
mp-570321,InSb2Se4Br,1.1103,1.35,4,BandgapDatabase1
mp-6548,K2La2Ti3O10,1.733499999999999,3.05,4,BandgapDatabase1
mp-27688,K2TeI6,1.7449,1.38,3,BandgapDatabase1
mp-12535,K2ZnTe2,2.0537,3.0,3,BandgapDatabase1
mp-17698,K6CdTe4,1.6614,2.51,3,BandgapDatabase1
mp-12532,KAg2PS4,1.2441,3.02,4,BandgapDatabase1
mp-557728,KCu4AsS4,1.2885,1.9,4,BandgapDatabase1
mp-3614,KTaO3,2.0995,3.65,3,BandgapDatabase1
mp-552488,LaCuSeO,1.5380999999999991,2.148,4,BandgapDatabase1
mp-549589,LaZnAsO,0.5760000000000001,1.5,4,BandgapDatabase1
mp-555874,LiAsS2,1.0664,1.6,3,BandgapDatabase1
mp-5048,LiGaTe2,1.5885,2.31,3,BandgapDatabase1
mp-973966,LiIn(IO3)4,3.0613,4.27,4,BandgapDatabase1
mp-7575,LiZnN,0.5187,1.945,3,BandgapDatabase1
mp-1634,MoSe2,1.3010000000000002,1.5,2,BandgapDatabase1
mp-573581,Na2TeSe3,1.2031,1.91,3,BandgapDatabase1
mp-3488,Na2Ti3O7,2.9953000000000003,3.51,3,BandgapDatabase1
mp-13019,NaLa2TaO6,3.979199999999999,4.5,4,BandgapDatabase1
mp-581967,Nb2O5,1.7731,3.4,2,BandgapDatabase1
mp-19009,NiO,2.300899999999999,3.6,2,BandgapDatabase1
mp-22342,PbSeO4,3.192299999999999,4.3,3,BandgapDatabase1
mp-18006,Rb2Cu2SnS4,0.9012999999999992,2.08,4,BandgapDatabase1
mp-17756,RbAg2SbS4,0.617799999999999,2.3,4,BandgapDatabase1
mp-2030,RuS2,0.6683999999999991,1.55,2,BandgapDatabase1
mp-9996,SiP2,1.4262,2.25,2,BandgapDatabase1
mp-1170,SnS2,1.514799999999999,2.2,2,BandgapDatabase1
mp-665,SnSe2,0.7018,1.2,2,BandgapDatabase1
mp-5532,Sr2TiO4,1.9141999999999992,2.56,3,BandgapDatabase1
mp-3349,Sr3Ti2O7,1.8404999999999991,3.2,3,BandgapDatabase1
mp-20489,SrPbO3,0.7941,1.78,3,BandgapDatabase1
mp-2758,SrSe,2.2313,4.42,2,BandgapDatabase1
mp-4092,SrSeO4,3.5358,4.75,3,BandgapDatabase1
mp-2879,SrSnO3,1.7365,4.1,3,BandgapDatabase1
mp-8377,TeO2,3.0604,3.7,2,BandgapDatabase1
mp-390,TiO2,2.0586,3.2,2,BandgapDatabase1
mp-31076,Tl2TeBr6,2.1632,2.06,3,BandgapDatabase1
mp-31077,Tl2TeI6,1.684399999999999,1.5,3,BandgapDatabase1
mp-7684,Tl3AsSe3,0.8813999999999991,1.3,3,BandgapDatabase1
mp-570339,Tl4CdI6,2.1721,2.815,3,BandgapDatabase1
mp-3785,TlGaTe2,0.5555999999999991,0.95,3,BandgapDatabase1
mp-22791,TlInTe2,0.540099999999999,0.86,3,BandgapDatabase1
mp-4763,ZnSiP2,1.3641,2.1,3,BandgapDatabase1
mp-13334,ZnSnO3,1.080999999999999,3.05,3,BandgapDatabase1
mp-1186,ZrS2,1.0418,1.7,2,BandgapDatabase1
mp-15077,Ag7AsS6,0.7299000000000001,1.0,3,Matbench_expt
mp-1228491,Al2S3,3.0435,4.1,2,Matbench_expt
mp-9631,AlAgO2,1.4090999999999991,3.6,3,Matbench_expt
mp-542810,AsS,1.9674,2.4,2,Matbench_expt
mp-505373,AsSeI,1.2345,1.76,3,Matbench_expt
mp-1196917,B2Mo(PbO2)6,2.4454,2.9,4,Matbench_expt
mp-1245025,B2O3,4.1254,4.89,2,Matbench_expt
mp-558521,B2Se2O7,3.941799999999999,4.64,3,Matbench_expt
mp-1229254,B3Pb10Br3O13,2.435399999999999,3.25,4,Matbench_expt
mp-1200969,B3Pb3NO10,3.0129,3.64,4,Matbench_expt
mp-624,B6As,2.6454,1.51,2,Matbench_expt
mp-1105235,BH(PbO2)2,3.0854,3.76,4,Matbench_expt
mp-1479,BP,1.243499999999999,4.2,2,Matbench_expt
mp-1201413,BPb7Br3O7,1.9254,2.62,4,Matbench_expt
mp-1228703,BSbPbS4,2.1522,1.8,4,Matbench_expt
mp-849286,Ba(GaS2)2,2.9088000000000003,4.13,3,Matbench_expt
mp-7841,Ba(GaSe2)2,1.8578,3.16,3,Matbench_expt
mp-21943,Ba(InS2)2,2.2042,3.06,3,Matbench_expt
mp-21766,Ba(InSe2)2,1.572,2.63,3,Matbench_expt
mp-1190588,Ba2Cd(BO2)6,4.3316,4.59,4,Matbench_expt
mp-1105698,Ba2DyGaSe5,1.6672,2.35,4,Matbench_expt
mp-1106127,Ba2DyInSe5,1.1264,2.27,4,Matbench_expt
mp-1189860,Ba2DyInTe5,0.7071000000000001,1.35,4,Matbench_expt
mp-1105790,Ba2ErGaSe5,1.673099999999999,1.95,4,Matbench_expt
mp-1188122,Ba2ErInSe5,1.1854,2.29,4,Matbench_expt
mp-1106146,Ba2ErInTe5,0.7491000000000001,1.35,4,Matbench_expt
mp-1201906,Ba2GaBiS5,2.391,2.38,4,Matbench_expt
mp-1199702,Ba2GaS4,1.8917,2.55,3,Matbench_expt
mp-1195574,Ba2GaSe4,1.0042,1.63,3,Matbench_expt
mp-1190156,Ba2GdGaSe5,1.3594,1.87,4,Matbench_expt
mp-1105573,Ba2GdGaTe5,0.7637,1.12,4,Matbench_expt
mp-1197611,Ba2InAgS4,1.7053999999999991,2.32,4,Matbench_expt
mp-1205363,Ba2NdGaSe5,1.6574,2.18,4,Matbench_expt
mp-1190093,Ba2NdInSe5,1.0692,2.2,4,Matbench_expt
mp-1205400,Ba2NdInTe5,0.666299999999999,1.37,4,Matbench_expt
mp-1189376,Ba2SmGaSe5,1.7080000000000002,2.27,4,Matbench_expt
mp-1189729,Ba2SmGaTe5,1.013199999999999,1.04,4,Matbench_expt
mp-1188304,Ba2SmInSe5,1.077999999999999,2.22,4,Matbench_expt
mp-1204192,Ba2V2Te2O11,3.2676,3.16,4,Matbench_expt
mp-556688,Ba2V2ZnO8,3.4759,3.48,4,Matbench_expt
mp-1106265,Ba2YGaSe5,1.6616,2.31,4,Matbench_expt
mp-1205397,Ba2YInSe5,1.176799999999999,2.31,4,Matbench_expt
mp-1228659,Ba3Cd(SnS4)2,2.0791,2.75,4,Matbench_expt
mp-560798,Ba3Dy2(PS4)4,2.418999999999999,3.28,4,Matbench_expt
mp-560534,Ba3Er2(PS4)4,2.4204,3.3,4,Matbench_expt
mp-684036,Ba3Gd2(PS4)4,1.404399999999999,3.41,4,Matbench_expt
mp-559171,Ba3Ho2(PS4)4,2.4239,3.3,4,Matbench_expt
mp-1200796,Ba3In2(PO4)4,3.7254,3.87,4,Matbench_expt
mp-1214475,Ba3Ta2ZnO9,3.348799999999999,4.32,4,Matbench_expt
mp-554264,Ba3Tb2(PS4)4,2.4175,3.37,4,Matbench_expt
mp-1200758,Ba3V2(SeO4)4,2.6965,2.87,4,Matbench_expt
mp-1228123,Ba5(Ga2Se5)2,2.0136,2.2,3,Matbench_expt
mp-1204617,Ba5(GaSe4)2,1.8701,2.51,3,Matbench_expt
mp-1019529,Ba8Al10B12O41,4.4373000000000005,3.1,4,Matbench_expt
mp-1205018,BaIn2(P2O7)2,4.004799999999999,3.97,4,Matbench_expt
mp-559703,BaLa2Te5O14,3.2436,3.81,4,Matbench_expt
mp-1200210,BaV2SeO8,2.0881,2.13,4,Matbench_expt
mp-556210,Bi2CO5,2.4505999999999992,3.42,3,Matbench_expt
mp-1204764,Bi2I4O13,3.0737,3.3,3,Matbench_expt
mp-554445,Bi5IO7,2.7708,2.76,3,Matbench_expt
mp-1190898,Bi7O5F11,3.9069,4.05,3,Matbench_expt
mp-556601,BiBPbO4,2.8773,3.2,4,Matbench_expt
mp-2913080,BiBr3,2.8833,2.66,2,Matbench_expt
mp-1227709,BiP3(PbO4)3,3.6994,3.7,4,Matbench_expt
mp-23084,BiPbClO2,2.073699999999999,2.45,4,Matbench_expt
mp-1195032,BiTeNO6,2.8005,3.62,4,Matbench_expt
mp-558751,Ca(BiO2)2,2.6093,3.08,3,Matbench_expt
mp-36358,Ca(GdS2)2,1.4034,2.55,3,Matbench_expt
mp-35421,Ca(LaS2)2,2.3219,2.7,3,Matbench_expt
mp-35876,Ca(NdS2)2,2.235,2.7,3,Matbench_expt
mp-34185,Ca(PrS2)2,2.057,2.9,3,Matbench_expt
mp-36100,Ca(SmS2)2,2.2597,2.05,3,Matbench_expt
mp-28848,Ca2Bi2O5,2.516,3.34,3,Matbench_expt
mp-1009755,Ca2Ge,0.5756,1.0,2,Matbench_expt
mp-28914,Cd4P2Br3,1.3986,2.19,3,Matbench_expt
mp-568545,Cd4P2I3,1.377799999999999,2.17,3,Matbench_expt
mp-1197203,CdAg2GeS4,0.8323,2.32,4,Matbench_expt
mp-550553,CdBiClO2,2.8427,3.08,4,Matbench_expt
mp-567910,CdHg6(As2Br3)2,1.3456,1.89,4,Matbench_expt
mp-1191962,CdIClO3,3.3467,4.3,4,Matbench_expt
mp-4627,CoAsS,0.9413,0.6000000000000001,3,Matbench_expt
mp-1197022,CrB2(PbO2)6,1.8898,1.8,4,Matbench_expt
mp-510421,CrO3,2.2699,1.4,2,Matbench_expt
mp-1201213,Cs2Cd3(B4O7)4,4.5525,4.76,4,Matbench_expt
mp-15223,Cs2NbCuSe4,1.635099999999999,2.19,4,Matbench_expt
mp-1195304,Cs2Sn3(SbS5)2,1.8595,2.34,4,Matbench_expt
mp-640389,Cs2Th(PS3)3,2.285199999999999,2.8,4,Matbench_expt
mp-1201443,Cs3Nb9(TeO8)4,1.4336,3.22,4,Matbench_expt
mp-1195417,Cs4Ge(PSe3)4,1.3838,2.0,4,Matbench_expt
mp-1096942,CsBiSe2,0.9529999999999992,1.07,3,Matbench_expt
mp-1228884,CsH3(SeO3)2,4.1517,4.77,4,Matbench_expt
mp-1194853,CsInHgS3,1.379,2.3,4,Matbench_expt
mp-1192530,CsPPbO4,4.0581,4.39,4,Matbench_expt
mp-984761,CsRb2Sb,0.6525000000000001,1.5,3,Matbench_expt
mp-1195448,CsSb(SO4)2,4.089700000000001,4.68,4,Matbench_expt
mp-561639,CsSbS2,1.736399999999999,2.8,3,Matbench_expt
mp-683998,CuBi(PSe3)2,0.6399,1.2,4,Matbench_expt
mp-1194904,CuHg(SeO3)2,0.7590999999999991,3.25,4,Matbench_expt
mp-1105187,CuPS3,1.1555,2.2,3,Matbench_expt
mp-1213120,Dy2(MoO4)3,3.5811,1.92,3,Matbench_expt
mp-1188427,Dy2Te3,0.5488000000000001,0.6900000000000001,2,Matbench_expt
mp-1095296,Dy4Te3S4,1.396599999999999,1.43,3,Matbench_expt
mp-1197728,Fe2B(PO4)3,2.025,3.52,4,Matbench_expt
mp-1196984,Ga2PbS4,2.2715,2.38,3,Matbench_expt
mp-571171,Ga2PbSe4,2.0313,1.83,3,Matbench_expt
mp-1194838,Ga2SnGeS6,0.9682,2.04,4,Matbench_expt
mp-1224946,GaAgGeS4,1.662,3.0,4,Matbench_expt
mp-11020,GaAgO2,0.583299999999999,2.2,3,Matbench_expt
mp-849761,GaBi25O39,2.1902,2.99,3,Matbench_expt
mp-1224851,GaCuGeSe4,0.7335,1.38,4,Matbench_expt
mp-11019,GaCuO2,0.7812999999999991,1.47,3,Matbench_expt
mp-1226384,Gd(CuS)3,0.9673,1.62,3,Matbench_expt
mp-1198509,GePb2(SeO3)4,3.309599999999999,4.1,4,Matbench_expt
mp-624190,GePbS3,1.757899999999999,2.4,3,Matbench_expt
mp-24354,H7Se2NO6,4.265,4.8100000000000005,4,Matbench_expt
mp-1104411,Hg3Bi2(SCl4)2,2.7814,3.26,4,Matbench_expt
mp-1192395,Hg3Bi2(TeCl4)2,3.0056,2.8,4,Matbench_expt
mp-23177,HgBr,2.2557,2.6,2,Matbench_expt
mp-1195954,Ho2HfS5,1.2172,1.0,3,Matbench_expt
mp-878,Ho2S3,1.4612999999999992,0.5,2,Matbench_expt
mp-1191856,In2As2Cl2O5,3.1511,4.62,4,Matbench_expt
mp-1200791,In4As5(BrO4)3,2.987999999999999,4.22,4,Matbench_expt
mp-1224757,In4Bi3S10,1.0139,1.42,3,Matbench_expt
mp-1224210,InCuGeSe4,0.6493000000000001,1.3,4,Matbench_expt
mp-1196151,InHg7S6Cl5,1.4549,2.54,4,Matbench_expt
mp-1212599,K2BaNb2S11,0.973599999999999,1.77,4,Matbench_expt
mp-10973,K2Ga3CuSe6,1.5668000000000002,1.72,4,Matbench_expt
mp-568855,K2Hg(PSe3)2,1.4002,2.25,4,Matbench_expt
mp-17792,K2Hg3(GeS4)2,1.552099999999999,2.64,4,Matbench_expt
mp-1199715,K2In2P3Se10,1.5675,2.2,4,Matbench_expt
mp-21705,K2In3AgSe6,1.489199999999999,1.64,4,Matbench_expt
mp-21713,K2In3CuSe6,1.2031,1.6800000000000002,4,Matbench_expt
mp-669410,K2Mn(SnSe3)2,0.8791,2.0,4,Matbench_expt
mp-9763,K2NbCuS4,1.9582,2.8200000000000003,4,Matbench_expt
mp-9003,K2NbCuSe4,1.6164,2.14,4,Matbench_expt
mp-976148,K2RbSb,0.6879000000000001,1.2,3,Matbench_expt
mp-1195395,K2Sn3(SbS5)2,1.816599999999999,2.3,4,Matbench_expt
mp-555425,K2Th(CuS2)2,1.126,2.17,4,Matbench_expt
mp-15147,K2VCuS4,1.2343,1.82,4,Matbench_expt
mp-1204785,K3Cd(BO2)5,3.817999999999999,3.47,4,Matbench_expt
mp-628185,K3NaSn3Se8,1.6836000000000002,2.2,4,Matbench_expt
mp-560964,K3Sm(AsS4)2,1.6795,2.2,4,Matbench_expt
mp-1195433,K4Ge(PSe3)4,1.3986,2.0,4,Matbench_expt
mp-14659,KAsSe2,1.595899999999999,1.62,3,Matbench_expt
mp-1223443,KBiS2,1.4158,0.86,3,Matbench_expt
mp-36539,KBiSe2,0.813099999999999,0.61,3,Matbench_expt
mp-1194436,KCu2BiS3,0.6686000000000001,1.29,4,Matbench_expt
mp-505700,KInSe2,1.8437,2.68,3,Matbench_expt
mp-1202434,KNb3(SeO6)2,2.3298,3.46,4,Matbench_expt
mp-1202170,KNb3(TeO6)2,2.4149000000000003,3.52,4,Matbench_expt
mp-569702,KPSe3,1.4182,2.08,3,Matbench_expt
mp-1536,KSb,0.8246000000000001,0.9,2,Matbench_expt
mp-1195296,KSb(SO4)2,4.2351,4.64,4,Matbench_expt
mp-1223460,KSnAuS3,1.6528,2.3,4,Matbench_expt
mp-1200554,KTa3(TeO6)2,2.9431000000000003,4.06,4,Matbench_expt
mp-1188829,KTeP2,1.2093,1.4,3,Matbench_expt
mp-1095429,KUClO3,1.758299999999999,2.37,4,Matbench_expt
mp-553910,KV4Ag11O16,0.9235,2.0,4,Matbench_expt
mp-6652,KZn4(BO3)3,2.8200000000000003,2.32,4,Matbench_expt
mp-558535,La10Se14O,1.523499999999999,2.04,3,Matbench_expt
mp-1078132,La2Fe(SeO)2,1.1414,0.7000000000000001,4,Matbench_expt
mp-1197947,La2HfS5,1.0901,0.7000000000000001,3,Matbench_expt
mp-1196301,La2Mn(SeO)2,1.6501,1.6,4,Matbench_expt
mp-1211314,La2TiCoO6,0.5484,1.02,4,Matbench_expt
mp-1196943,La2Zn(SeO)2,2.4958,3.4,4,Matbench_expt
mp-1198818,La3Mo4O16F,3.6136,3.7,4,Matbench_expt
mp-1180682,LaMg2H7Pd,0.710499999999999,1.0,4,Matbench_expt
mp-1202389,LaVI5O16,2.3631,3.58,4,Matbench_expt
mp-1203622,Li2TeMoO6,3.0987,3.5,4,Matbench_expt
mp-1196881,Li2TeWO6,3.640099999999999,4.0,4,Matbench_expt
mp-555186,Li2ZnSnS4,2.1758,2.87,4,Matbench_expt
mp-1222398,LiGa(GeSe3)2,1.510399999999999,2.64,4,Matbench_expt
mp-696288,LiH3(SeO3)2,4.3204,4.9,4,Matbench_expt
mp-558917,LiMoIO6,2.2334,2.8,4,Matbench_expt
mp-14591,LiSbS2,1.2569,1.36,3,Matbench_expt
mp-973391,LiSiB6,1.7307,2.27,3,Matbench_expt
mp-1206514,Mg3AsN,2.281799999999999,1.33,3,Matbench_expt
mp-2222834,MgCu2GeS4,0.6525000000000001,2.36,4,Matbench_expt
mp-1205334,MgCu2SiS4,1.673099999999999,3.2,4,Matbench_expt
mp-1104707,Na(GeP)3,1.085499999999999,2.06,3,Matbench_expt
mp-1190429,Na2In2GeSe6,1.3672,2.47,4,Matbench_expt
mp-1195277,Na2Mo2Se2O11,2.7771999999999992,3.1,4,Matbench_expt
mp-1192640,Na2Nb4Se4O19,2.3695,3.56,4,Matbench_expt
mp-1266,Na2Se,2.0153,2.0,2,Matbench_expt
mp-1190476,Na2Zn(GeSe3)2,1.3476,2.36,4,Matbench_expt
mp-1190487,Na2Zn(SnS3)2,1.7270999999999992,2.93,4,Matbench_expt
mp-560158,Na3Zn(BO2)5,4.2437000000000005,3.2,4,Matbench_expt
mp-1103730,Na4Mg(GeSe3)2,1.822099999999999,2.53,4,Matbench_expt
mp-1103351,Na4Mg(SiSe3)2,2.7632000000000003,2.85,4,Matbench_expt
mp-1220990,NaH3(SeO3)2,4.3395,4.9,4,Matbench_expt
mp-22473,NaInSe2,1.019199999999999,2.8,3,Matbench_expt
mp-22483,NaInTe2,0.6416000000000001,1.6,3,Matbench_expt
mp-7944,NaSb,0.6041000000000001,0.8200000000000001,2,Matbench_expt
mp-554384,NaSb(PS3)2,2.075799999999999,2.17,4,Matbench_expt
mp-561232,NaSm(PS3)2,2.793,2.54,4,Matbench_expt
mp-1195227,NaY(Te2O5)2,3.065,3.9,4,Matbench_expt
mp-554930,Nb2AgPS10,1.1059,1.78,4,Matbench_expt
mp-1199265,Nb2Pb2Se4O15,2.662099999999999,2.79,4,Matbench_expt
mp-570757,Nb2Tl3CuSe12,1.0734,0.8,4,Matbench_expt
mp-17803,Nb2Tl4S11,1.2121,1.8,3,Matbench_expt
mp-27383,Nb3CuO8,0.7845000000000001,1.47,3,Matbench_expt
mp-554336,NbAg2(PS4)2,1.6524,2.02,4,Matbench_expt
mp-4043,NbCu3Se4,1.3604,2.45,3,Matbench_expt
mp-17272,NbCuO3,0.959,2.0,3,Matbench_expt
mp-1202414,Nd10Se14O,1.3835,1.98,3,Matbench_expt
mp-1196123,Nd2HfS5,1.0171,0.7000000000000001,3,Matbench_expt
mp-32688,Nd2Se3,1.4781,1.7000000000000002,2,Matbench_expt
mp-542314,NdCuSO,1.617999999999999,2.98,4,Matbench_expt
mp-974307,NdCuTeO,1.476,2.26,4,Matbench_expt
mp-1192562,NdMoO4F,4.0564,3.66,4,Matbench_expt
mp-28860,P2Se5,1.356199999999999,2.2,2,Matbench_expt
mp-1102534,POsS,0.944,1.4,3,Matbench_expt
mp-1101841,POsSe,0.515699999999999,1.4,3,Matbench_expt
mp-7280,PPdS,1.014299999999999,1.38,3,Matbench_expt
mp-1095584,PRuS,0.5699000000000001,1.4,3,Matbench_expt
mp-1194412,Pb3Se2(BrO3)2,2.832899999999999,3.73,4,Matbench_expt
mp-560835,Pr10Se14O,1.3981,1.89,3,Matbench_expt
mp-15179,Pr2S3,0.7775000000000001,2.6,2,Matbench_expt
mp-6166,PrCuSO,1.641599999999999,3.03,4,Matbench_expt
mp-1192358,PrMoO4F,4.0857,3.64,4,Matbench_expt
mp-1219751,PrTl2InSe4,1.2316,0.93,4,Matbench_expt
mp-999289,PrTlSe2,1.2363,1.18,3,Matbench_expt
mp-1103709,Rb2Cd(IBr)2,3.171,3.35,4,Matbench_expt
mp-541897,Rb2Cd(PSe3)2,1.7916999999999992,2.58,4,Matbench_expt
mp-1200744,Rb2Cd3(B4O7)4,4.5081,4.76,4,Matbench_expt
mp-1209424,Rb2Hg3(GeS4)2,2.0942,2.8,4,Matbench_expt
mp-1194625,Rb2Mo3Se3O16,2.6974,3.1,4,Matbench_expt
mp-561434,Rb2Sn2Hg3S8,1.769499999999999,2.48,4,Matbench_expt
mp-1194540,Rb2Sn3(SbS5)2,1.8255,2.33,4,Matbench_expt
mp-1209316,Rb2Ti(AgS2)2,1.5994000000000002,2.33,4,Matbench_expt
mp-1200569,Rb3Cd(BO2)5,3.7196,2.34,4,Matbench_expt
mp-1020643,Rb3Zn(BO2)5,4.314,2.66,4,Matbench_expt
mp-1195251,Rb4Ge(PSe3)4,1.3687,2.0,4,Matbench_expt
mp-1199088,Rb4Mo5(PO11)2,3.3712,3.51,4,Matbench_expt
mp-1197285,RbCd(BO2)3,3.8078,4.2,4,Matbench_expt
mp-541407,RbCuSnS3,0.5314999999999991,1.44,4,Matbench_expt
mp-1192404,RbH2(IO3)3,3.5083,4.07,4,Matbench_expt
mp-24022,RbH3(SeO3)2,4.1504,4.84,4,Matbench_expt
mp-975275,RbNa2Sb,0.5682,1.0,3,Matbench_expt
mp-1201687,RbNb3(TeO6)2,2.403299999999999,3.49,4,Matbench_expt
mp-1189259,RbSbSe2,1.5375,1.62,3,Matbench_expt
mp-1204836,RbTa3(TeO6)2,2.8998,3.88,4,Matbench_expt
mp-1209215,Sb3IO4,2.5352,2.61,3,Matbench_expt
mp-556869,Sb5IO7,2.7123,1.95,3,Matbench_expt
mp-1219562,Sb8I2O11,1.2782,2.72,3,Matbench_expt
mp-1102833,SbOsS,1.119199999999999,1.2,3,Matbench_expt
mp-578882,SbPb2S2I3,1.9425,2.0,4,Matbench_expt
mp-1206466,SbPbBrO2,1.8655,2.67,4,Matbench_expt
mp-1219447,SbPbIO2,1.2046,2.48,4,Matbench_expt
mp-1102395,SbRuSe,0.7549,0.9,3,Matbench_expt
mp-1209072,SbSeBr,1.437799999999999,1.84,3,Matbench_expt
mp-1219458,SbTeRh,0.552099999999999,0.5,3,Matbench_expt
mp-1102857,SbTeRu,0.6273999999999991,0.5,3,Matbench_expt
mp-11022,ScAgO2,2.1264,3.8,3,Matbench_expt
mp-3642,ScCuO2,2.3309,3.3,3,Matbench_expt
mp-23492,Si(Bi3O5)4,2.347799999999999,3.2,3,Matbench_expt
mp-13282,Sm(ErSe2)3,0.8068999999999991,2.0,3,Matbench_expt
mp-1106376,Sm2Te3,0.5334000000000001,0.7000000000000001,2,Matbench_expt
mp-1105337,Sm3B(SO)3,1.5301,2.5,4,Matbench_expt
mp-11793,SmCuSe2,0.8167999999999991,2.1,3,Matbench_expt
mp-9194,SmCuSeO,1.286499999999999,2.6,4,Matbench_expt
mp-5045,SnGeS3,1.6591,2.23,3,Matbench_expt
mp-34141,Sr(LaS2)2,2.0278,2.85,3,Matbench_expt
mp-37108,Sr(NdS2)2,2.2662,2.45,3,Matbench_expt
mp-38240,Sr(PrS2)2,2.257199999999999,2.7,3,Matbench_expt
mp-1197632,Sr2V3Se5O18,2.564899999999999,2.47,4,Matbench_expt
mp-1218587,Sr4Te3(ClO2)4,3.3574,4.0,4,Matbench_expt
mp-1204879,Sr4V2(Se2O7)3,2.7193,2.66,4,Matbench_expt
mp-40674,Sr5V3O12F,3.999999999999999,4.5,4,Matbench_expt
mp-18344,Ta2Tl4S11,1.523299999999999,1.26,3,Matbench_expt
mp-28752,Ta7Cu3O19,1.173899999999999,2.47,3,Matbench_expt
mp-10748,TaCu3S4,1.9231,3.0,3,Matbench_expt
mp-1103802,TbWClO4,3.4255,4.24,4,Matbench_expt
mp-1196950,TePb3Cl4O3,3.2599,3.79,4,Matbench_expt
mp-1217322,TeSe,0.7062,1.58,2,Matbench_expt
mp-23494,Ti(Bi3O5)4,2.312999999999999,3.09,3,Matbench_expt
mp-1191976,Ti6H2O13,2.8867000000000003,3.4,3,Matbench_expt
mp-1542940,TiTlPS5,1.1811,1.3,4,Matbench_expt
mp-30236,TlAsSe2,1.2565,1.35,3,Matbench_expt
mp-1767,Tm2O3,3.6932,4.53,2,Matbench_expt
mp-1203641,V2Pb4(Se2O7)3,2.3938,3.37,4,Matbench_expt
mp-554700,V2Zn3TeO10,2.8675,2.96,4,Matbench_expt
mp-1216491,V3As2O9,1.2701,0.76,3,Matbench_expt
mp-1198619,VAg(IO4)2,1.402899999999999,2.24,4,Matbench_expt
mp-3762,VCu3S4,1.0358,1.0,3,Matbench_expt
mp-1105584,VZn2BiO6,2.7248,2.4,4,Matbench_expt
mp-1216202,Y(CuSe)3,1.1817,0.88,3,Matbench_expt
mp-1216225,Y(CuTe)3,0.7632000000000001,0.72,3,Matbench_expt
mp-541289,Y2S3,1.5992000000000002,2.9,2,Matbench_expt
mp-1216132,Y6Zn(SiS7)2,2.0178,2.38,4,Matbench_expt
mp-2918,YCuO2,2.647,3.5,3,Matbench_expt
mp-560118,YMoClO4,2.7874,3.82,4,Matbench_expt
mp-555913,YMoO4F,3.7464,3.78,4,Matbench_expt
mp-15776,Zn(GaSe2)2,1.400099999999999,1.72,3,Matbench_expt
mp-1215701,Zn2InCuTe4,1.1334,1.05,4,Matbench_expt
mp-1191333,Zn2MoSeO7,3.7131,4.2,4,Matbench_expt
mp-1192126,Zn2TeMoO7,3.4519,4.1,4,Matbench_expt
mp-557683,Zn3(BO3)2,2.7833,2.6,3,Matbench_expt
mp-1105527,ZnCu2GeS4,0.507799999999999,2.1,4,Matbench_expt
mp-1232332,ZnCu2SiSe4,0.5549000000000001,2.33,4,Matbench_expt
mp-1189914,ZnSi(AgS2)2,1.6859000000000002,3.28,4,Matbench_expt
mp-1200713,ZrHg4(PCl3)2,2.1134,3.22,4,Matbench_expt